 *******************************************************************************
 ** Site#: 10133           For non-commercial use only        Version 10.328L **
 *******************************************************************************
 ** Cite this work as: MOPAC2009, James J. P. Stewart, Stewart Computational  **
 ** Chemistry, Version 10.328L web: HTTP://OpenMOPAC.net  Days remaining:   0 **
 *******************************************************************************
 **                                                                           **
 **                                MOPAC2009                                  **
 **                                                                           **
 *******************************************************************************

                            AM1 CALCULATION RESULTS


 *******************************************************************************
 *  CALCULATION DONE:                                Fri Feb 17 10:39:16 2012  *
 *  AM1      - The AM1 Hamiltonian to be used
 *  SINGLET  - SPIN STATE DEFINED AS A SINGLET
 *  ESP      - ELECTROSTATIC POTENTIAL CALCULATION
 *  T=       - A TIME OF 172800.0 SECONDS REQUESTED
 *  DUMP=N   - RESTART FILE WRITTEN EVERY  7200.000 SECONDS
 *******************************************************************************
singlet am1 esp
 G39

  ATOM    CHEMICAL      BOND LENGTH      BOND ANGLE     TWIST ANGLE 
 NUMBER    SYMBOL       (ANGSTROMS)      (DEGREES)       (DEGREES) 
   (I)                     NA:I           NB:NA:I       NC:NB:NA:I       NA    NB    NC 
     1       C          0.00000000  *    0.0000000  *    0.0000000  *
     2       H          1.08984100  *    0.0000000  *    0.0000000  *     1     0     0
     3       H          1.08994100  *  109.4425220  *    0.0000000  *     1     2     0
     4       H          1.09040100  *  111.5981990  *  124.0461840  *     1     2     3
     5       C          1.53788800  *  109.4337180  * -119.9912110  *     1     2     3
     6       H          1.09032000  *  106.6542220  *   56.4467980  *     5     1     2
     7       H          1.08989300  *  108.7364530  *  179.5376100  *     5     1     2
     8       C          1.54155800  *  112.4203900  *  -60.0114250  *     5     1     2
     9       H          1.09059300  *  110.3235350  *  -50.5568760  *     8     5     1
    10       C          1.53215500  *  105.3240620  * -169.7794870  *     8     5     1
    11       H          1.09006100  *  108.6330210  *   35.8256620  *    10     8     5
    12       H          1.09002200  *  106.5945050  *  -87.0582320  *    10     8     5
    13       C          1.53642400  *  112.8045540  *  156.3312890  *    10     8     5
    14       H          1.08956600  *  109.4882050  *  -63.3411720  *    13    10     8
    15       H          1.09060400  *  109.4493420  *  176.6582580  *    13    10     8
    16       H          1.09012200  *  105.1263480  *   56.6917620  *    13    10     8
    17       O          1.44893100  *  107.4499920  *   71.4160340  *     8     5     1
    18       C          1.44131900  *  116.0494120  * -149.3581670  *    17     8     5
    19       H          1.08949800  *  107.4234110  *  -14.8285260  *    18    17     8
    20       C          1.40492000  *  109.8113340  * -131.9469530  *    18    17     8
    21       H          1.09016900  *  118.2586490  *   43.5086340  *    20    18    17
    22       C          1.41329400  *  123.4236710  * -136.4779510  *    20    18    17
    23       C          1.38668700  *  119.7337320  * -170.7285560  *    22    20    18
    24       O          1.25435200  *  119.9316760  *  131.2723000  *    23    22    20
    25       O          1.24523100  *  120.5119620  *  -46.2593360  *    23    22    20
    26       C          1.40299700  *  121.8995790  *    7.4310420  *    22    20    18
    27       H          1.09010100  *  108.4656940  * -148.7347820  *    26    22    20
    28       H          1.09040800  *  107.5788970  *   88.8533600  *    26    22    20
    29       C          1.52499200  *  113.3731230  *  -28.1874290  *    26    22    20
    30       H          1.09050300  *  108.9285040  *  -66.9805660  *    29    26    22
    31       N          1.47502500  *  107.6013000  *  174.2963410  *    29    26    22
    32       H          1.00045000  *  109.8713310  *  178.8393140  *    31    29    26
    33       H          1.00528600  *  108.8913410  *   60.4577640  *    31    29    26
    34       H          0.99644400  *  110.0292790  *  -60.0015280  *    31    29    26
    35       C          1.54288700  *  110.3271240  *  100.5851650  *    18    17     8
    36       H          1.09020600  *  108.1534750  *   42.0622300  *    35    18    17
    37       N          1.48650600  *  107.6107840  *  -75.4006130  *    35    18    17
    38       H          1.00095000  *  117.1124050  *  -21.2379110  *    37    35    18
    39       C          1.33184100  *  123.3779590  *  158.2000800  *    37    35    18
    40       O          1.24032300  *  124.7759820  *    2.7761700  *    39    37    35
    41       C          1.53173100  *  114.9426670  * -179.1362140  *    39    37    35
    42       H          1.09004300  *  109.5043110  *    1.8149720  *    41    39    37
    43       H          1.09025800  *  109.4540980  * -118.1737780  *    41    39    37
    44       H          1.09003900  *  105.1437070  *  121.8478000  *    41    39    37
 


          CARTESIAN COORDINATES 

    NO.       ATOM         X         Y         Z

     1         C        0.0000    0.0000    0.0000
     2         H        1.0898    0.0000    0.0000
     3         H       -0.3628    1.0278    0.0000
     4         H       -0.4014   -0.5676   -0.8401
     5         C       -0.5117   -0.7249    1.2561
     6         H       -0.0712   -0.2143    2.1128
     7         H       -1.6015   -0.7111    1.2488
     8         C       -0.0356   -2.1895    1.3246
     9         H       -0.2471   -2.7009    0.3848
    10         C       -0.8334   -2.8215    2.4698
    11         H       -1.8362   -2.3940    2.4732
    12         H       -0.2720   -2.6284    3.3840
    13         C       -0.9509   -4.3481    2.3423
    14         H       -1.5069   -4.5956    1.4385
    15         H       -1.4751   -4.7459    3.2120
    16         H        0.0764   -4.7094    2.2934
    17         O        1.3834   -2.1719    1.6171
    18         C        2.1540   -3.2650    1.0798
    19         H        1.4517   -4.0386    0.7711
    20         C        2.9782   -3.8043    2.0816
    21         H        2.5518   -3.9589    3.0730
    22         C        4.3307   -4.1563    1.8712
    23         C        5.0190   -4.8577    2.8495
    24         O        5.6805   -5.8776    2.5400
    25         O        4.9498   -4.5104    4.0433
    26         C        4.9993   -3.8498    0.6764
    27         H        5.7433   -4.6241    0.4887
    28         H        5.4384   -2.8582    0.7898
    29         C        4.0722   -3.7674   -0.5316
    30         H        3.6731   -4.7607   -0.7397
    31         N        4.8756   -3.3068   -1.6798
    32         H        4.3024   -3.2586   -2.4983
    33         H        5.6112   -3.9706   -1.8495
    34         H        5.2662   -2.4109   -1.4855
    35         C        2.8960   -2.8206   -0.1979
    36         H        3.3022   -1.8237   -0.0254
    37         N        1.8970   -2.7493   -1.2963
    38         H        1.0530   -3.2746   -1.1801
    39         C        2.0709   -2.0227   -2.3989
    40         O        3.0912   -1.3679   -2.6610
    41         C        0.9091   -2.0733   -3.3958
    42         H        0.1092   -2.6935   -2.9912
    43         H        1.2570   -2.4983   -4.3376
    44         H        0.5919   -1.0375   -3.5163

  H: (AM1): M.J.S. DEWAR ET AL, J. AM. CHEM. SOC. 107 3902-3909 (1985)
  C: (AM1): M.J.S. DEWAR ET AL, J. AM. CHEM. SOC. 107 3902-3909 (1985)
  N: (AM1): M.J.S. DEWAR ET AL, J. AM. CHEM. SOC. 107 3902-3909 (1985)
  O: (AM1): M.J.S. DEWAR ET AL, J. AM. CHEM. SOC. 107 3902-3909 (1985)

           Empirical Formula: C14 H24 N2 O4  =    44 atoms



      MOLECULAR POINT GROUP   :   C1  


 SINGLET STATE CALCULATION


      RHF CALCULATION, NO. OF DOUBLY OCCUPIED LEVELS =   57

           THIS SYSTEM CONTAINS    1 -HNCO- GROUPS.
 YOU CAN SPECIFY "NOMM" OR "MMOK" REGARDING MOLECULAR MECHANICS CORRECTION
      Geometry optimization using EF

          DIAGONAL MATRIX USED AS START HESSIAN

 CYCLE:     1 TIME:   0.092 TIME LEFT:  2.00D  GRAD.:   310.264 HEAT:-77.95184
 CYCLE:     2 TIME:   0.072 TIME LEFT:  2.00D  GRAD.:   293.856 HEAT:-103.1346
 CYCLE:     3 TIME:   0.244 TIME LEFT:  2.00D  GRAD.:   391.000 HEAT:-104.9499
 CYCLE:     4 TIME:   0.072 TIME LEFT:  2.00D  GRAD.:   150.244 HEAT:-109.7610
 CYCLE:     5 TIME:   0.068 TIME LEFT:  2.00D  GRAD.:   136.694 HEAT:-112.6182
 CYCLE:     6 TIME:   0.072 TIME LEFT:  2.00D  GRAD.:   138.905 HEAT:-115.5589
 CYCLE:     7 TIME:   0.076 TIME LEFT:  2.00D  GRAD.:   153.206 HEAT:-116.1618
 CYCLE:     8 TIME:   0.072 TIME LEFT:  2.00D  GRAD.:   161.337 HEAT:-116.6158
 CYCLE:     9 TIME:   0.068 TIME LEFT:  2.00D  GRAD.:   137.343 HEAT:-117.9991
 CYCLE:    10 TIME:   0.072 TIME LEFT:  2.00D  GRAD.:   123.786 HEAT:-118.3073
 CYCLE:    11 TIME:   0.068 TIME LEFT:  2.00D  GRAD.:    86.501 HEAT:-120.1468
 CYCLE:    12 TIME:   0.072 TIME LEFT:  2.00D  GRAD.:    82.202 HEAT:-120.6990
 CYCLE:    13 TIME:   0.072 TIME LEFT:  2.00D  GRAD.:    77.006 HEAT:-121.3645
 CYCLE:    14 TIME:   0.076 TIME LEFT:  2.00D  GRAD.:    58.775 HEAT:-122.7191
 CYCLE:    15 TIME:   0.072 TIME LEFT:  2.00D  GRAD.:    44.740 HEAT:-123.2810
 CYCLE:    16 TIME:   0.076 TIME LEFT:  2.00D  GRAD.:    40.029 HEAT:-123.7294
 CYCLE:    17 TIME:   0.072 TIME LEFT:  2.00D  GRAD.:    34.814 HEAT:-124.1299
 CYCLE:    18 TIME:   0.068 TIME LEFT:  2.00D  GRAD.:    37.598 HEAT:-124.3535
 CYCLE:    19 TIME:   0.068 TIME LEFT:  2.00D  GRAD.:    35.307 HEAT:-124.4765
 CYCLE:    20 TIME:   0.076 TIME LEFT:  2.00D  GRAD.:    35.586 HEAT:-124.5283
 CYCLE:    21 TIME:   0.072 TIME LEFT:  2.00D  GRAD.:    33.260 HEAT:-124.6612
 CYCLE:    22 TIME:   0.068 TIME LEFT:  2.00D  GRAD.:    32.139 HEAT:-124.7806
 CYCLE:    23 TIME:   0.072 TIME LEFT:  2.00D  GRAD.:    33.339 HEAT:-124.8701
 CYCLE:    24 TIME:   0.068 TIME LEFT:  2.00D  GRAD.:    30.594 HEAT:-125.0935
 CYCLE:    25 TIME:   0.076 TIME LEFT:  2.00D  GRAD.:    28.780 HEAT:-125.4772
 CYCLE:    26 TIME:   0.072 TIME LEFT:  2.00D  GRAD.:    28.641 HEAT:-125.6340
 CYCLE:    27 TIME:   0.076 TIME LEFT:  2.00D  GRAD.:    42.207 HEAT:-125.8357
 CYCLE:    28 TIME:   0.068 TIME LEFT:  2.00D  GRAD.:    24.245 HEAT:-125.9189
 CYCLE:    29 TIME:   0.068 TIME LEFT:  2.00D  GRAD.:    21.874 HEAT:-125.9686
 CYCLE:    30 TIME:   0.068 TIME LEFT:  2.00D  GRAD.:    20.748 HEAT:-126.0009
 CYCLE:    31 TIME:   0.064 TIME LEFT:  2.00D  GRAD.:    20.512 HEAT:-126.0315
 CYCLE:    32 TIME:   0.240 TIME LEFT:  2.00D  GRAD.:    21.323 HEAT:-126.0548
 CYCLE:    33 TIME:   0.068 TIME LEFT:  2.00D  GRAD.:    20.659 HEAT:-126.0933
 CYCLE:    34 TIME:   0.128 TIME LEFT:  2.00D  GRAD.:    20.625 HEAT:-126.0970
 CYCLE:    35 TIME:   0.072 TIME LEFT:  2.00D  GRAD.:    20.560 HEAT:-126.1468
 CYCLE:    36 TIME:   0.068 TIME LEFT:  2.00D  GRAD.:    23.477 HEAT:-126.2168
 CYCLE:    37 TIME:   0.068 TIME LEFT:  2.00D  GRAD.:    20.853 HEAT:-126.2489
 CYCLE:    38 TIME:   0.068 TIME LEFT:  2.00D  GRAD.:    22.154 HEAT:-126.2792
 CYCLE:    39 TIME:   0.068 TIME LEFT:  2.00D  GRAD.:    19.907 HEAT:-126.3330
 CYCLE:    40 TIME:   0.072 TIME LEFT:  2.00D  GRAD.:    22.941 HEAT:-126.3895
 CYCLE:    41 TIME:   0.076 TIME LEFT:  2.00D  GRAD.:    21.467 HEAT:-126.4519
 CYCLE:    42 TIME:   0.068 TIME LEFT:  2.00D  GRAD.:    20.317 HEAT:-126.5178
 CYCLE:    43 TIME:   0.072 TIME LEFT:  2.00D  GRAD.:    20.793 HEAT:-126.5777
 CYCLE:    44 TIME:   0.076 TIME LEFT:  2.00D  GRAD.:    25.410 HEAT:-126.6498
 CYCLE:    45 TIME:   0.068 TIME LEFT:  2.00D  GRAD.:    20.120 HEAT:-126.6875
 CYCLE:    46 TIME:   0.072 TIME LEFT:  2.00D  GRAD.:    19.528 HEAT:-126.7258
 CYCLE:    47 TIME:   0.068 TIME LEFT:  2.00D  GRAD.:    17.894 HEAT:-126.7592
 CYCLE:    48 TIME:   0.072 TIME LEFT:  2.00D  GRAD.:    17.548 HEAT:-126.7850
 CYCLE:    49 TIME:   0.072 TIME LEFT:  2.00D  GRAD.:    16.875 HEAT:-126.8307
 CYCLE:    50 TIME:   0.072 TIME LEFT:  2.00D  GRAD.:    16.609 HEAT:-126.8860
 CYCLE:    51 TIME:   0.072 TIME LEFT:  2.00D  GRAD.:    15.163 HEAT:-126.9794
 CYCLE:    52 TIME:   0.072 TIME LEFT:  2.00D  GRAD.:    15.679 HEAT:-127.1543
 CYCLE:    53 TIME:   0.072 TIME LEFT:  2.00D  GRAD.:    13.213 HEAT:-127.2574
 CYCLE:    54 TIME:   0.068 TIME LEFT:  2.00D  GRAD.:    14.634 HEAT:-127.4598
 CYCLE:    55 TIME:   0.076 TIME LEFT:  2.00D  GRAD.:    10.656 HEAT:-127.5517
 CYCLE:    56 TIME:   0.072 TIME LEFT:  2.00D  GRAD.:    11.680 HEAT:-127.5981
 CYCLE:    57 TIME:   0.068 TIME LEFT:  2.00D  GRAD.:    12.297 HEAT:-127.6382
 CYCLE:    58 TIME:   0.072 TIME LEFT:  2.00D  GRAD.:    10.634 HEAT:-127.6509
 CYCLE:    59 TIME:   0.068 TIME LEFT:  2.00D  GRAD.:    10.525 HEAT:-127.6664
 CYCLE:    60 TIME:   0.072 TIME LEFT:  2.00D  GRAD.:    10.009 HEAT:-127.6782
 CYCLE:    61 TIME:   0.068 TIME LEFT:  2.00D  GRAD.:    10.867 HEAT:-127.6866
 CYCLE:    62 TIME:   0.072 TIME LEFT:  2.00D  GRAD.:    10.628 HEAT:-127.7081
 CYCLE:    63 TIME:   0.068 TIME LEFT:  2.00D  GRAD.:    10.645 HEAT:-127.7297
 CYCLE:    64 TIME:   0.312 TIME LEFT:  2.00D  GRAD.:    14.108 HEAT:-127.7471
 CYCLE:    65 TIME:   0.072 TIME LEFT:  2.00D  GRAD.:    13.562 HEAT:-127.7718
 CYCLE:    66 TIME:   0.072 TIME LEFT:  2.00D  GRAD.:    12.140 HEAT:-127.7908
 CYCLE:    67 TIME:   0.076 TIME LEFT:  2.00D  GRAD.:    11.158 HEAT:-127.8212
 CYCLE:    68 TIME:   0.072 TIME LEFT:  2.00D  GRAD.:    15.480 HEAT:-127.8441
 CYCLE:    69 TIME:   0.068 TIME LEFT:  2.00D  GRAD.:    13.040 HEAT:-127.8501
 CYCLE:    70 TIME:   0.188 TIME LEFT:  2.00D  GRAD.:    19.275 HEAT:-127.8535
 CYCLE:    71 TIME:   0.072 TIME LEFT:  2.00D  GRAD.:    14.432 HEAT:-127.8615
 CYCLE:    72 TIME:   0.176 TIME LEFT:  2.00D  GRAD.:    13.763 HEAT:-127.8646
 CYCLE:    73 TIME:   0.068 TIME LEFT:  2.00D  GRAD.:    12.987 HEAT:-127.8725
 CYCLE:    74 TIME:   0.124 TIME LEFT:  2.00D  GRAD.:    12.713 HEAT:-127.8757
 CYCLE:    75 TIME:   0.068 TIME LEFT:  2.00D  GRAD.:    11.880 HEAT:-127.8837
 CYCLE:    76 TIME:   0.072 TIME LEFT:  2.00D  GRAD.:    13.403 HEAT:-127.8860
 CYCLE:    77 TIME:   0.068 TIME LEFT:  2.00D  GRAD.:    11.728 HEAT:-127.8956
 CYCLE:    78 TIME:   0.172 TIME LEFT:  2.00D  GRAD.:    12.362 HEAT:-127.8927
 CYCLE:    79 TIME:   0.072 TIME LEFT:  2.00D  GRAD.:    11.617 HEAT:-127.9022
 CYCLE:    80 TIME:   0.072 TIME LEFT:  2.00D  GRAD.:    12.517 HEAT:-127.9101
 CYCLE:    81 TIME:   0.064 TIME LEFT:  2.00D  GRAD.:    14.397 HEAT:-127.9174
 CYCLE:    82 TIME:   0.076 TIME LEFT:  2.00D  GRAD.:    14.348 HEAT:-127.9210
 CYCLE:    83 TIME:   0.240 TIME LEFT:  2.00D  GRAD.:    25.071 HEAT:-127.9227
 CYCLE:    84 TIME:   0.068 TIME LEFT:  2.00D  GRAD.:    14.837 HEAT:-127.9386
 CYCLE:    85 TIME:   0.068 TIME LEFT:  2.00D  GRAD.:    12.370 HEAT:-127.9442
 CYCLE:    86 TIME:   0.064 TIME LEFT:  2.00D  GRAD.:    12.491 HEAT:-127.9462
 CYCLE:    87 TIME:   0.072 TIME LEFT:  2.00D  GRAD.:    13.269 HEAT:-127.9462
 CYCLE:    88 TIME:   0.072 TIME LEFT:  2.00D  GRAD.:    12.491 HEAT:-127.9425
 CYCLE:    89 TIME:   0.072 TIME LEFT:  2.00D  GRAD.:    15.013 HEAT:-127.9479
 CYCLE:    90 TIME:   0.068 TIME LEFT:  2.00D  GRAD.:    12.186 HEAT:-127.9568
 CYCLE:    91 TIME:   0.072 TIME LEFT:  2.00D  GRAD.:    13.115 HEAT:-127.9512
 CYCLE:    92 TIME:   0.072 TIME LEFT:  2.00D  GRAD.:    12.355 HEAT:-127.9596
 CYCLE:    93 TIME:   0.232 TIME LEFT:  2.00D  GRAD.:    12.581 HEAT:-127.9612
 CYCLE:    94 TIME:   0.068 TIME LEFT:  2.00D  GRAD.:    11.951 HEAT:-127.9627
 CYCLE:    95 TIME:   0.072 TIME LEFT:  2.00D  GRAD.:    12.684 HEAT:-127.9620
 CYCLE:    96 TIME:   0.072 TIME LEFT:  2.00D  GRAD.:    12.607 HEAT:-127.9600
 CYCLE:    97 TIME:   0.068 TIME LEFT:  2.00D  GRAD.:    11.994 HEAT:-127.9712
 CYCLE:    98 TIME:   0.068 TIME LEFT:  2.00D  GRAD.:    12.169 HEAT:-127.9742
 CYCLE:    99 TIME:   0.072 TIME LEFT:  2.00D  GRAD.:    12.405 HEAT:-127.9768
 CYCLE:   100 TIME:   0.128 TIME LEFT:  2.00D  GRAD.:    12.977 HEAT:-127.9752
 CYCLE:   101 TIME:   0.184 TIME LEFT:  2.00D  GRAD.:    18.901 HEAT:-127.9710
 CYCLE:   102 TIME:   0.068 TIME LEFT:  2.00D  GRAD.:    12.390 HEAT:-127.9817
 CYCLE:   103 TIME:   0.068 TIME LEFT:  2.00D  GRAD.:    12.332 HEAT:-127.9842
 CYCLE:   104 TIME:   0.068 TIME LEFT:  2.00D  GRAD.:    11.816 HEAT:-127.9855
 CYCLE:   105 TIME:   0.068 TIME LEFT:  2.00D  GRAD.:    14.112 HEAT:-127.9853
 CYCLE:   106 TIME:   0.072 TIME LEFT:  2.00D  GRAD.:    16.006 HEAT:-127.9830
 CYCLE:   107 TIME:   0.068 TIME LEFT:  2.00D  GRAD.:    12.460 HEAT:-127.9744
 CYCLE:   108 TIME:   0.068 TIME LEFT:  2.00D  GRAD.:    12.158 HEAT:-127.9817
 CYCLE:   109 TIME:   0.120 TIME LEFT:  2.00D  GRAD.:    13.914 HEAT:-127.9836
 CYCLE:   110 TIME:   0.068 TIME LEFT:  2.00D  GRAD.:    11.986 HEAT:-127.9880
 CYCLE:   111 TIME:   0.068 TIME LEFT:  2.00D  GRAD.:    11.939 HEAT:-127.9885
 CYCLE:   112 TIME:   0.064 TIME LEFT:  2.00D  GRAD.:    11.970 HEAT:-127.9903
 CYCLE:   113 TIME:   0.124 TIME LEFT:  2.00D  GRAD.:    12.844 HEAT:-127.9855
 CYCLE:   114 TIME:   0.072 TIME LEFT:  2.00D  GRAD.:    12.757 HEAT:-127.9795
 CYCLE:   115 TIME:   0.068 TIME LEFT:  2.00D  GRAD.:    12.073 HEAT:-127.9899
 CYCLE:   116 TIME:   0.072 TIME LEFT:  2.00D  GRAD.:    12.603 HEAT:-127.9903
 CYCLE:   117 TIME:   0.124 TIME LEFT:  2.00D  GRAD.:    12.630 HEAT:-127.9846
 CYCLE:   118 TIME:   0.072 TIME LEFT:  2.00D  GRAD.:    13.041 HEAT:-127.9848
 CYCLE:   119 TIME:   0.068 TIME LEFT:  2.00D  GRAD.:    12.234 HEAT:-127.9935
 CYCLE:   120 TIME:   0.072 TIME LEFT:  2.00D  GRAD.:    12.142 HEAT:-127.9945
 CYCLE:   121 TIME:   0.068 TIME LEFT:  2.00D  GRAD.:    12.230 HEAT:-127.9956
 CYCLE:   122 TIME:   0.120 TIME LEFT:  2.00D  GRAD.:    12.947 HEAT:-127.9907
 CYCLE:   123 TIME:   0.124 TIME LEFT:  2.00D  GRAD.:    13.354 HEAT:-127.9833
 CYCLE:   124 TIME:   0.068 TIME LEFT:  2.00D  GRAD.:    12.133 HEAT:-127.9946
 CYCLE:   125 TIME:   0.068 TIME LEFT:  2.00D  GRAD.:    12.368 HEAT:-127.9967
 CYCLE:   126 TIME:   0.060 TIME LEFT:  2.00D  GRAD.:    12.214 HEAT:-127.9985
 CYCLE:   127 TIME:   0.072 TIME LEFT:  2.00D  GRAD.:    12.393 HEAT:-127.9979
 CYCLE:   128 TIME:   0.172 TIME LEFT:  2.00D  GRAD.:    13.315 HEAT:-127.9904
 CYCLE:   129 TIME:   0.124 TIME LEFT:  2.00D  GRAD.:    13.899 HEAT:-127.9893
 CYCLE:   130 TIME:   0.068 TIME LEFT:  2.00D  GRAD.:    12.714 HEAT:-127.9961
 CYCLE:   131 TIME:   0.064 TIME LEFT:  2.00D  GRAD.:    12.495 HEAT:-128.0006
 CYCLE:   132 TIME:   0.064 TIME LEFT:  2.00D  GRAD.:    12.232 HEAT:-128.0012
 CYCLE:   133 TIME:   0.072 TIME LEFT:  2.00D  GRAD.:    12.209 HEAT:-127.9990
 CYCLE:   134 TIME:   0.068 TIME LEFT:  2.00D  GRAD.:    12.354 HEAT:-128.0022
 CYCLE:   135 TIME:   0.124 TIME LEFT:  2.00D  GRAD.:    12.681 HEAT:-127.9957
 CYCLE:   136 TIME:   0.124 TIME LEFT:  2.00D  GRAD.:    13.901 HEAT:-127.9983
 CYCLE:   137 TIME:   0.072 TIME LEFT:  2.00D  GRAD.:    12.443 HEAT:-128.0030
 CYCLE:   138 TIME:   0.068 TIME LEFT:  2.00D  GRAD.:    12.403 HEAT:-128.0030
 CYCLE:   139 TIME:   0.068 TIME LEFT:  2.00D  GRAD.:    12.612 HEAT:-127.9999
 CYCLE:   140 TIME:   0.072 TIME LEFT:  2.00D  GRAD.:    12.583 HEAT:-128.0008
 CYCLE:   141 TIME:   0.124 TIME LEFT:  2.00D  GRAD.:    13.337 HEAT:-127.9941
 CYCLE:   142 TIME:   0.064 TIME LEFT:  2.00D  GRAD.:    12.578 HEAT:-127.9992
 CYCLE:   143 TIME:   0.068 TIME LEFT:  2.00D  GRAD.:    12.296 HEAT:-128.0017
 CYCLE:   144 TIME:   0.068 TIME LEFT:  2.00D  GRAD.:    13.437 HEAT:-127.9976
 CYCLE:   145 TIME:   0.068 TIME LEFT:  2.00D  GRAD.:    12.304 HEAT:-128.0044
 CYCLE:   146 TIME:   0.064 TIME LEFT:  2.00D  GRAD.:    13.191 HEAT:-127.9950
 CYCLE:   147 TIME:   0.072 TIME LEFT:  2.00D  GRAD.:    12.242 HEAT:-128.0043
 CYCLE:   148 TIME:   0.068 TIME LEFT:  2.00D  GRAD.:    13.480 HEAT:-127.9975
 CYCLE:   149 TIME:   0.072 TIME LEFT:  2.00D  GRAD.:    12.395 HEAT:-128.0056
 CYCLE:   150 TIME:   0.124 TIME LEFT:  2.00D  GRAD.:    13.017 HEAT:-127.9970
 CYCLE:   151 TIME:   0.072 TIME LEFT:  2.00D  GRAD.:    12.231 HEAT:-128.0058
 CYCLE:   152 TIME:   0.072 TIME LEFT:  2.00D  GRAD.:    13.325 HEAT:-128.0009
 CYCLE:   153 TIME:   0.068 TIME LEFT:  2.00D  GRAD.:    12.413 HEAT:-128.0022
 CYCLE:   154 TIME:   0.172 TIME LEFT:  2.00D  GRAD.:    13.453 HEAT:-128.0013
 CYCLE:   155 TIME:   0.068 TIME LEFT:  2.00D  GRAD.:    12.360 HEAT:-128.0073
 CYCLE:   156 TIME:   0.068 TIME LEFT:  2.00D  GRAD.:    12.701 HEAT:-128.0067
 CYCLE:   157 TIME:   0.068 TIME LEFT:  2.00D  GRAD.:    12.247 HEAT:-128.0094
 CYCLE:   158 TIME:   0.232 TIME LEFT:  2.00D  GRAD.:    12.856 HEAT:-128.0067
 CYCLE:   159 TIME:   0.068 TIME LEFT:  2.00D  GRAD.:    15.142 HEAT:-128.0065
 CYCLE:   160 TIME:   0.068 TIME LEFT:  2.00D  GRAD.:    12.575 HEAT:-128.0091
 CYCLE:   161 TIME:   0.064 TIME LEFT:  2.00D  GRAD.:    13.743 HEAT:-128.0088
 CYCLE:   162 TIME:   0.068 TIME LEFT:  2.00D  GRAD.:    12.629 HEAT:-128.0098
 CYCLE:   163 TIME:   0.068 TIME LEFT:  2.00D  GRAD.:    16.540 HEAT:-128.0076
 CYCLE:   164 TIME:   0.064 TIME LEFT:  2.00D  GRAD.:    12.231 HEAT:-128.0111
 CYCLE:   165 TIME:   0.068 TIME LEFT:  2.00D  GRAD.:    12.200 HEAT:-128.0112
 CYCLE:   166 TIME:   0.068 TIME LEFT:  2.00D  GRAD.:    13.321 HEAT:-128.0094
 CYCLE:   167 TIME:   0.124 TIME LEFT:  2.00D  GRAD.:    14.624 HEAT:-128.0050
 CYCLE:   168 TIME:   0.068 TIME LEFT:  2.00D  GRAD.:    20.554 HEAT:-128.0037
 CYCLE:   169 TIME:   0.064 TIME LEFT:  2.00D  GRAD.:    14.312 HEAT:-128.0103
 CYCLE:   170 TIME:   0.068 TIME LEFT:  2.00D  GRAD.:    13.229 HEAT:-128.0078
 CYCLE:   171 TIME:   0.068 TIME LEFT:  2.00D  GRAD.:    12.696 HEAT:-128.0123
 CYCLE:   172 TIME:   0.124 TIME LEFT:  2.00D  GRAD.:    13.580 HEAT:-128.0112
 CYCLE:   173 TIME:   0.064 TIME LEFT:  2.00D  GRAD.:    13.096 HEAT:-128.0132
 CYCLE:   174 TIME:   0.064 TIME LEFT:  2.00D  GRAD.:    12.710 HEAT:-128.0130
 CYCLE:   175 TIME:   0.068 TIME LEFT:  2.00D  GRAD.:    12.161 HEAT:-128.0146
 CYCLE:   176 TIME:   0.120 TIME LEFT:  2.00D  GRAD.:    17.500 HEAT:-128.0083
 CYCLE:   177 TIME:   0.068 TIME LEFT:  2.00D  GRAD.:    12.766 HEAT:-128.0148
 CYCLE:   178 TIME:   0.068 TIME LEFT:  2.00D  GRAD.:    12.372 HEAT:-128.0152
 CYCLE:   179 TIME:   0.064 TIME LEFT:  2.00D  GRAD.:    12.186 HEAT:-128.0164
 CYCLE:   180 TIME:   0.120 TIME LEFT:  2.00D  GRAD.:    16.622 HEAT:-128.0077
 CYCLE:   181 TIME:   0.068 TIME LEFT:  2.00D  GRAD.:    12.450 HEAT:-128.0161
 CYCLE:   182 TIME:   0.072 TIME LEFT:  2.00D  GRAD.:    12.323 HEAT:-128.0176
 CYCLE:   183 TIME:   0.064 TIME LEFT:  2.00D  GRAD.:    12.203 HEAT:-128.0195
 CYCLE:   184 TIME:   0.068 TIME LEFT:  2.00D  GRAD.:    13.147 HEAT:-128.0228
 CYCLE:   185 TIME:   0.068 TIME LEFT:  2.00D  GRAD.:    12.165 HEAT:-128.0262
 CYCLE:   186 TIME:   0.068 TIME LEFT:  2.00D  GRAD.:    12.213 HEAT:-128.0313
 CYCLE:   187 TIME:   0.068 TIME LEFT:  2.00D  GRAD.:    13.371 HEAT:-128.0282
 CYCLE:   188 TIME:   0.276 TIME LEFT:  2.00D  GRAD.:    13.441 HEAT:-128.0291
 CYCLE:   189 TIME:   0.068 TIME LEFT:  2.00D  GRAD.:    12.144 HEAT:-128.0396
 CYCLE:   190 TIME:   0.068 TIME LEFT:  2.00D  GRAD.:    12.280 HEAT:-128.0419
 CYCLE:   191 TIME:   0.064 TIME LEFT:  2.00D  GRAD.:    13.022 HEAT:-128.0419
 CYCLE:   192 TIME:   0.072 TIME LEFT:  2.00D  GRAD.:    12.434 HEAT:-128.0466
 CYCLE:   193 TIME:   0.168 TIME LEFT:  2.00D  GRAD.:    15.096 HEAT:-128.0374
 CYCLE:   194 TIME:   0.068 TIME LEFT:  2.00D  GRAD.:    12.154 HEAT:-128.0492
 CYCLE:   195 TIME:   0.068 TIME LEFT:  2.00D  GRAD.:    12.125 HEAT:-128.0514
 CYCLE:   196 TIME:   0.068 TIME LEFT:  2.00D  GRAD.:    12.836 HEAT:-128.0532
 CYCLE:   197 TIME:   0.180 TIME LEFT:  2.00D  GRAD.:    15.586 HEAT:-128.0462
 CYCLE:   198 TIME:   0.072 TIME LEFT:  2.00D  GRAD.:    14.728 HEAT:-128.0508
 CYCLE:   199 TIME:   0.068 TIME LEFT:  2.00D  GRAD.:    12.416 HEAT:-128.0568
 CYCLE:   200 TIME:   0.128 TIME LEFT:  2.00D  GRAD.:    14.248 HEAT:-128.0534
 CYCLE:   201 TIME:   0.068 TIME LEFT:  2.00D  GRAD.:    12.691 HEAT:-128.0576
 CYCLE:   202 TIME:   0.124 TIME LEFT:  2.00D  GRAD.:    14.954 HEAT:-128.0547
 CYCLE:   203 TIME:   0.072 TIME LEFT:  2.00D  GRAD.:    12.379 HEAT:-128.0587
 CYCLE:   204 TIME:   0.068 TIME LEFT:  2.00D  GRAD.:    12.608 HEAT:-128.0590
 CYCLE:   205 TIME:   0.364 TIME LEFT:  2.00D  GRAD.:    12.354 HEAT:-128.0593
 CYCLE:   206 TIME:   0.064 TIME LEFT:  2.00D  GRAD.:    12.455 HEAT:-128.0592
 CYCLE:   207 TIME:   0.068 TIME LEFT:  2.00D  GRAD.:    12.562 HEAT:-128.0593
 CYCLE:   208 TIME:   0.064 TIME LEFT:  2.00D  GRAD.:    15.395 HEAT:-128.0575
 CYCLE:   209 TIME:   0.064 TIME LEFT:  2.00D  GRAD.:    13.714 HEAT:-128.0587
 CYCLE:   210 TIME:   0.068 TIME LEFT:  2.00D  GRAD.:    12.530 HEAT:-128.0595
 CYCLE:   211 TIME:   0.064 TIME LEFT:  2.00D  GRAD.:    12.313 HEAT:-128.0597
 CYCLE:   212 TIME:   0.068 TIME LEFT:  2.00D  GRAD.:    12.340 HEAT:-128.0598
 CYCLE:   213 TIME:   0.064 TIME LEFT:  2.00D  GRAD.:    12.376 HEAT:-128.0601
 CYCLE:   214 TIME:   0.064 TIME LEFT:  2.00D  GRAD.:    12.499 HEAT:-128.0607
 CYCLE:   215 TIME:   0.068 TIME LEFT:  2.00D  GRAD.:    13.559 HEAT:-128.0600
 CYCLE:   216 TIME:   0.064 TIME LEFT:  2.00D  GRAD.:    12.422 HEAT:-128.0621
 CYCLE:   217 TIME:   0.068 TIME LEFT:  2.00D  GRAD.:    12.380 HEAT:-128.0624
 CYCLE:   218 TIME:   0.068 TIME LEFT:  2.00D  GRAD.:    12.558 HEAT:-128.0631
 CYCLE:   219 TIME:   0.064 TIME LEFT:  2.00D  GRAD.:    12.471 HEAT:-128.0647
 CYCLE:   220 TIME:   0.068 TIME LEFT:  2.00D  GRAD.:    14.282 HEAT:-128.0579
 CYCLE:   221 TIME:   0.064 TIME LEFT:  2.00D  GRAD.:    12.735 HEAT:-128.0678
 CYCLE:   222 TIME:   0.072 TIME LEFT:  2.00D  GRAD.:    14.625 HEAT:-128.0581
 CYCLE:   223 TIME:   0.064 TIME LEFT:  2.00D  GRAD.:    12.612 HEAT:-128.0694
 CYCLE:   224 TIME:   0.176 TIME LEFT:  2.00D  GRAD.:    13.770 HEAT:-128.0663
 CYCLE:   225 TIME:   0.068 TIME LEFT:  2.00D  GRAD.:    12.861 HEAT:-128.0703
 CYCLE:   226 TIME:   0.068 TIME LEFT:  2.00D  GRAD.:    13.155 HEAT:-128.0674
 CYCLE:   227 TIME:   0.068 TIME LEFT:  2.00D  GRAD.:    12.555 HEAT:-128.0716
 CYCLE:   228 TIME:   0.168 TIME LEFT:  2.00D  GRAD.:    14.884 HEAT:-128.0647
 CYCLE:   229 TIME:   0.064 TIME LEFT:  2.00D  GRAD.:    13.220 HEAT:-128.0697
 CYCLE:   230 TIME:   0.064 TIME LEFT:  2.00D  GRAD.:    12.796 HEAT:-128.0723
 CYCLE:   231 TIME:   0.072 TIME LEFT:  2.00D  GRAD.:    12.966 HEAT:-128.0689
 CYCLE:   232 TIME:   0.068 TIME LEFT:  2.00D  GRAD.:    12.809 HEAT:-128.0713
 CYCLE:   233 TIME:   0.220 TIME LEFT:  2.00D  GRAD.:    14.381 HEAT:-128.0671
 CYCLE:   234 TIME:   0.064 TIME LEFT:  2.00D  GRAD.:    13.277 HEAT:-128.0719
 CYCLE:   235 TIME:   0.064 TIME LEFT:  2.00D  GRAD.:    12.682 HEAT:-128.0738
 CYCLE:   236 TIME:   0.068 TIME LEFT:  2.00D  GRAD.:    13.378 HEAT:-128.0745
 CYCLE:   237 TIME:   0.064 TIME LEFT:  2.00D  GRAD.:    12.727 HEAT:-128.0762
 CYCLE:   238 TIME:   0.068 TIME LEFT:  2.00D  GRAD.:    12.706 HEAT:-128.0765
 CYCLE:   239 TIME:   0.068 TIME LEFT:  2.00D  GRAD.:    12.701 HEAT:-128.0783
 CYCLE:   240 TIME:   0.168 TIME LEFT:  2.00D  GRAD.:    17.032 HEAT:-128.0693
 CYCLE:   241 TIME:   0.068 TIME LEFT:  2.00D  GRAD.:    13.184 HEAT:-128.0774
 CYCLE:   242 TIME:   0.064 TIME LEFT:  2.00D  GRAD.:    12.710 HEAT:-128.0792
 CYCLE:   243 TIME:   0.068 TIME LEFT:  2.00D  GRAD.:    12.682 HEAT:-128.0796
 CYCLE:   244 TIME:   0.068 TIME LEFT:  2.00D  GRAD.:    12.817 HEAT:-128.0795
 CYCLE:   245 TIME:   0.068 TIME LEFT:  2.00D  GRAD.:    13.373 HEAT:-128.0791
 CYCLE:   246 TIME:   0.076 TIME LEFT:  2.00D  GRAD.:    14.069 HEAT:-128.0720
 CYCLE:   247 TIME:   0.064 TIME LEFT:  2.00D  GRAD.:    13.253 HEAT:-128.0775
 CYCLE:   248 TIME:   0.124 TIME LEFT:  2.00D  GRAD.:    14.635 HEAT:-128.0789
 CYCLE:   249 TIME:   0.068 TIME LEFT:  2.00D  GRAD.:    13.433 HEAT:-128.0781
 CYCLE:   250 TIME:   0.068 TIME LEFT:  2.00D  GRAD.:    13.202 HEAT:-128.0806
 CYCLE:   251 TIME:   0.124 TIME LEFT:  2.00D  GRAD.:    17.359 HEAT:-128.0718
 CYCLE:   252 TIME:   0.072 TIME LEFT:  2.00D  GRAD.:    13.186 HEAT:-128.0825
 CYCLE:   253 TIME:   0.064 TIME LEFT:  2.00D  GRAD.:    13.228 HEAT:-128.0831
 CYCLE:   254 TIME:   0.064 TIME LEFT:  2.00D  GRAD.:    13.348 HEAT:-128.0820
 CYCLE:   255 TIME:   0.068 TIME LEFT:  2.00D  GRAD.:    13.630 HEAT:-128.0807
 CYCLE:   256 TIME:   0.172 TIME LEFT:  2.00D  GRAD.:    19.074 HEAT:-128.0728
 CYCLE:   257 TIME:   0.064 TIME LEFT:  2.00D  GRAD.:    17.384 HEAT:-128.0764
 CYCLE:   258 TIME:   0.068 TIME LEFT:  2.00D  GRAD.:    13.405 HEAT:-128.0813
 CYCLE:   259 TIME:   0.164 TIME LEFT:  2.00D  GRAD.:    18.480 HEAT:-128.0775
 CYCLE:   260 TIME:   0.068 TIME LEFT:  2.00D  GRAD.:    13.275 HEAT:-128.0819
 CYCLE:   261 TIME:   0.068 TIME LEFT:  2.00D  GRAD.:    13.214 HEAT:-128.0830
 CYCLE:   262 TIME:   0.064 TIME LEFT:  2.00D  GRAD.:    13.508 HEAT:-128.0839
 CYCLE:   263 TIME:   0.068 TIME LEFT:  2.00D  GRAD.:    13.235 HEAT:-128.0850
 CYCLE:   264 TIME:   0.072 TIME LEFT:  2.00D  GRAD.:    13.265 HEAT:-128.0870
 CYCLE:   265 TIME:   0.068 TIME LEFT:  2.00D  GRAD.:    12.930 HEAT:-128.0865
 CYCLE:   266 TIME:   0.180 TIME LEFT:  2.00D  GRAD.:    13.849 HEAT:-128.0796
 CYCLE:   267 TIME:   0.180 TIME LEFT:  2.00D  GRAD.:    20.163 HEAT:-128.0795
 CYCLE:   268 TIME:   0.064 TIME LEFT:  2.00D  GRAD.:    15.155 HEAT:-128.0845
 CYCLE:   269 TIME:   0.068 TIME LEFT:  2.00D  GRAD.:    13.328 HEAT:-128.0881
 CYCLE:   270 TIME:   0.064 TIME LEFT:  2.00D  GRAD.:    13.011 HEAT:-128.0898
 CYCLE:   271 TIME:   0.064 TIME LEFT:  2.00D  GRAD.:    13.061 HEAT:-128.0918
 CYCLE:   272 TIME:   0.072 TIME LEFT:  2.00D  GRAD.:    13.143 HEAT:-128.0916
 CYCLE:   273 TIME:   0.068 TIME LEFT:  2.00D  GRAD.:    13.139 HEAT:-128.0838
 CYCLE:   274 TIME:   0.120 TIME LEFT:  2.00D  GRAD.:    14.970 HEAT:-128.0805
 CYCLE:   275 TIME:   0.064 TIME LEFT:  2.00D  GRAD.:    13.528 HEAT:-128.0897
 CYCLE:   276 TIME:   0.068 TIME LEFT:  2.00D  GRAD.:    13.185 HEAT:-128.0922
 CYCLE:   277 TIME:   0.064 TIME LEFT:  2.00D  GRAD.:    13.389 HEAT:-128.0929
 CYCLE:   278 TIME:   0.072 TIME LEFT:  2.00D  GRAD.:    13.086 HEAT:-128.0897
 CYCLE:   279 TIME:   0.124 TIME LEFT:  2.00D  GRAD.:    15.733 HEAT:-128.0826
 CYCLE:   280 TIME:   0.064 TIME LEFT:  2.00D  GRAD.:    13.190 HEAT:-128.0922
 CYCLE:   281 TIME:   0.068 TIME LEFT:  2.00D  GRAD.:    12.829 HEAT:-128.0955
 CYCLE:   282 TIME:   0.068 TIME LEFT:  2.00D  GRAD.:    12.886 HEAT:-128.0903
 CYCLE:   283 TIME:   0.064 TIME LEFT:  2.00D  GRAD.:    12.904 HEAT:-128.0939
 CYCLE:   284 TIME:   0.168 TIME LEFT:  2.00D  GRAD.:    14.107 HEAT:-128.0865
 CYCLE:   285 TIME:   0.064 TIME LEFT:  2.00D  GRAD.:    12.782 HEAT:-128.0961
 CYCLE:   286 TIME:   0.068 TIME LEFT:  2.00D  GRAD.:    12.721 HEAT:-128.0958
 CYCLE:   287 TIME:   0.068 TIME LEFT:  2.00D  GRAD.:    13.165 HEAT:-128.0984
 CYCLE:   288 TIME:   0.068 TIME LEFT:  2.00D  GRAD.:    13.946 HEAT:-128.0904
 CYCLE:   289 TIME:   0.068 TIME LEFT:  2.00D  GRAD.:    12.979 HEAT:-128.1028
 CYCLE:   290 TIME:   0.072 TIME LEFT:  2.00D  GRAD.:    13.195 HEAT:-128.1032
 CYCLE:   291 TIME:   0.068 TIME LEFT:  2.00D  GRAD.:    13.563 HEAT:-128.0989
 CYCLE:   292 TIME:   0.176 TIME LEFT:  2.00D  GRAD.:    13.464 HEAT:-128.0931
 CYCLE:   293 TIME:   0.072 TIME LEFT:  2.00D  GRAD.:    13.886 HEAT:-128.0853
 CYCLE:   294 TIME:   0.064 TIME LEFT:  2.00D  GRAD.:    13.469 HEAT:-128.0970
 CYCLE:   295 TIME:   0.068 TIME LEFT:  2.00D  GRAD.:    13.410 HEAT:-128.1022
 CYCLE:   296 TIME:   0.120 TIME LEFT:  2.00D  GRAD.:    14.127 HEAT:-128.0975
 CYCLE:   297 TIME:   0.068 TIME LEFT:  2.00D  GRAD.:    16.387 HEAT:-128.0901
 CYCLE:   298 TIME:   0.068 TIME LEFT:  2.00D  GRAD.:    13.172 HEAT:-128.1027
 CYCLE:   299 TIME:   0.068 TIME LEFT:  2.00D  GRAD.:    13.804 HEAT:-128.1029
 CYCLE:   300 TIME:   0.064 TIME LEFT:  2.00D  GRAD.:    13.183 HEAT:-128.1050
 CYCLE:   301 TIME:   0.068 TIME LEFT:  2.00D  GRAD.:    14.461 HEAT:-128.1023
 CYCLE:   302 TIME:   0.072 TIME LEFT:  2.00D  GRAD.:    14.216 HEAT:-128.1082
 CYCLE:   303 TIME:   0.068 TIME LEFT:  2.00D  GRAD.:    13.184 HEAT:-128.1108
 CYCLE:   304 TIME:   0.068 TIME LEFT:  2.00D  GRAD.:    14.109 HEAT:-128.1063
 CYCLE:   305 TIME:   0.068 TIME LEFT:  2.00D  GRAD.:    13.611 HEAT:-128.1112
 CYCLE:   306 TIME:   0.068 TIME LEFT:  2.00D  GRAD.:    15.020 HEAT:-128.1089
 CYCLE:   307 TIME:   0.068 TIME LEFT:  2.00D  GRAD.:    13.404 HEAT:-128.1145
 CYCLE:   308 TIME:   0.240 TIME LEFT:  2.00D  GRAD.:    14.391 HEAT:-128.1086
 CYCLE:   309 TIME:   0.068 TIME LEFT:  2.00D  GRAD.:    13.432 HEAT:-128.1150
 CYCLE:   310 TIME:   0.068 TIME LEFT:  2.00D  GRAD.:    13.387 HEAT:-128.1163
 CYCLE:   311 TIME:   0.068 TIME LEFT:  2.00D  GRAD.:    13.763 HEAT:-128.1161
 CYCLE:   312 TIME:   0.068 TIME LEFT:  2.00D  GRAD.:    14.750 HEAT:-128.1093
 CYCLE:   313 TIME:   0.224 TIME LEFT:  2.00D  GRAD.:    18.326 HEAT:-128.1026
 CYCLE:   314 TIME:   0.064 TIME LEFT:  2.00D  GRAD.:    13.391 HEAT:-128.1109
 CYCLE:   315 TIME:   0.068 TIME LEFT:  2.00D  GRAD.:    13.338 HEAT:-128.1144
 CYCLE:   316 TIME:   0.068 TIME LEFT:  2.00D  GRAD.:    13.489 HEAT:-128.1150
 CYCLE:   317 TIME:   0.068 TIME LEFT:  2.00D  GRAD.:    13.351 HEAT:-128.1176
 CYCLE:   318 TIME:   0.064 TIME LEFT:  2.00D  GRAD.:    13.436 HEAT:-128.1120
 CYCLE:   319 TIME:   0.180 TIME LEFT:  2.00D  GRAD.:    15.375 HEAT:-128.1083
 CYCLE:   320 TIME:   0.064 TIME LEFT:  2.00D  GRAD.:    13.607 HEAT:-128.1152
 CYCLE:   321 TIME:   0.068 TIME LEFT:  2.00D  GRAD.:    13.042 HEAT:-128.1190
 CYCLE:   322 TIME:   0.068 TIME LEFT:  2.00D  GRAD.:    13.353 HEAT:-128.1184
 CYCLE:   323 TIME:   0.072 TIME LEFT:  2.00D  GRAD.:    13.243 HEAT:-128.1129
 CYCLE:   324 TIME:   0.068 TIME LEFT:  2.00D  GRAD.:    15.300 HEAT:-128.1074
 CYCLE:   325 TIME:   0.068 TIME LEFT:  2.00D  GRAD.:    13.631 HEAT:-128.1145
 CYCLE:   326 TIME:   0.064 TIME LEFT:  2.00D  GRAD.:    13.669 HEAT:-128.1155
 CYCLE:   327 TIME:   0.072 TIME LEFT:  2.00D  GRAD.:    13.623 HEAT:-128.1144
 CYCLE:   328 TIME:   0.068 TIME LEFT:  2.00D  GRAD.:    14.010 HEAT:-128.1152
 CYCLE:   329 TIME:   0.208 TIME LEFT:  2.00D  GRAD.:    14.742 HEAT:-128.1119
 CYCLE:   330 TIME:   0.060 TIME LEFT:  2.00D  GRAD.:    13.346 HEAT:-128.1168
 CYCLE:   331 TIME:   0.068 TIME LEFT:  2.00D  GRAD.:    13.681 HEAT:-128.1181
 CYCLE:   332 TIME:   0.068 TIME LEFT:  2.00D  GRAD.:    13.481 HEAT:-128.1195
 CYCLE:   333 TIME:   0.068 TIME LEFT:  2.00D  GRAD.:    13.786 HEAT:-128.1139
 CYCLE:   334 TIME:   0.232 TIME LEFT:  2.00D  GRAD.:    20.525 HEAT:-128.1088
 CYCLE:   335 TIME:   0.064 TIME LEFT:  2.00D  GRAD.:    14.321 HEAT:-128.1178
 CYCLE:   336 TIME:   0.064 TIME LEFT:  2.00D  GRAD.:    13.299 HEAT:-128.1211
 CYCLE:   337 TIME:   0.064 TIME LEFT:  2.00D  GRAD.:    13.294 HEAT:-128.1218
 CYCLE:   338 TIME:   0.068 TIME LEFT:  2.00D  GRAD.:    13.068 HEAT:-128.1200
 CYCLE:   339 TIME:   0.072 TIME LEFT:  2.00D  GRAD.:    13.946 HEAT:-128.1189
 CYCLE:   340 TIME:   0.260 TIME LEFT:  2.00D  GRAD.:    20.164 HEAT:-128.1145
 CYCLE:   341 TIME:   0.064 TIME LEFT:  2.00D  GRAD.:    17.025 HEAT:-128.1173
 CYCLE:   342 TIME:   0.068 TIME LEFT:  2.00D  GRAD.:    13.353 HEAT:-128.1200
 CYCLE:   343 TIME:   0.064 TIME LEFT:  2.00D  GRAD.:    13.142 HEAT:-128.1208
 CYCLE:   344 TIME:   0.068 TIME LEFT:  2.00D  GRAD.:    13.454 HEAT:-128.1221
 CYCLE:   345 TIME:   0.072 TIME LEFT:  2.00D  GRAD.:    13.307 HEAT:-128.1220
 CYCLE:   346 TIME:   0.068 TIME LEFT:  2.00D  GRAD.:    13.576 HEAT:-128.1168
 CYCLE:   347 TIME:   0.068 TIME LEFT:  2.00D  GRAD.:    13.656 HEAT:-128.1154
 CYCLE:   348 TIME:   0.064 TIME LEFT:  2.00D  GRAD.:    13.725 HEAT:-128.1214
 CYCLE:   349 TIME:   0.068 TIME LEFT:  2.00D  GRAD.:    14.421 HEAT:-128.1217
 CYCLE:   350 TIME:   0.068 TIME LEFT:  2.00D  GRAD.:    14.172 HEAT:-128.1200
 CYCLE:   351 TIME:   0.116 TIME LEFT:  2.00D  GRAD.:    14.628 HEAT:-128.1141
 CYCLE:   352 TIME:   0.064 TIME LEFT:  2.00D  GRAD.:    13.021 HEAT:-128.1240
 CYCLE:   353 TIME:   0.064 TIME LEFT:  2.00D  GRAD.:    13.235 HEAT:-128.1254
 CYCLE:   354 TIME:   0.124 TIME LEFT:  2.00D  GRAD.:    13.841 HEAT:-128.1218
 CYCLE:   355 TIME:   0.072 TIME LEFT:  2.00D  GRAD.:    13.203 HEAT:-128.1231
 CYCLE:   356 TIME:   0.068 TIME LEFT:  2.00D  GRAD.:    13.966 HEAT:-128.1204
 CYCLE:   357 TIME:   0.180 TIME LEFT:  2.00D  GRAD.:    16.024 HEAT:-128.1219
 CYCLE:   358 TIME:   0.064 TIME LEFT:  2.00D  GRAD.:    13.336 HEAT:-128.1267
 CYCLE:   359 TIME:   0.068 TIME LEFT:  2.00D  GRAD.:    13.407 HEAT:-128.1276
 CYCLE:   360 TIME:   0.064 TIME LEFT:  2.00D  GRAD.:    13.350 HEAT:-128.1282
 CYCLE:   361 TIME:   0.064 TIME LEFT:  2.00D  GRAD.:    13.283 HEAT:-128.1290
 CYCLE:   362 TIME:   0.068 TIME LEFT:  2.00D  GRAD.:    13.370 HEAT:-128.1312
 CYCLE:   363 TIME:   0.068 TIME LEFT:  2.00D  GRAD.:    13.647 HEAT:-128.1308
 CYCLE:   364 TIME:   0.264 TIME LEFT:  2.00D  GRAD.:    21.246 HEAT:-128.1232
 CYCLE:   365 TIME:   0.064 TIME LEFT:  2.00D  GRAD.:    15.722 HEAT:-128.1284
 CYCLE:   366 TIME:   0.068 TIME LEFT:  2.00D  GRAD.:    13.715 HEAT:-128.1318
 CYCLE:   367 TIME:   0.064 TIME LEFT:  2.00D  GRAD.:    13.411 HEAT:-128.1328
 CYCLE:   368 TIME:   0.072 TIME LEFT:  2.00D  GRAD.:    14.580 HEAT:-128.1320
 CYCLE:   369 TIME:   0.068 TIME LEFT:  2.00D  GRAD.:    13.356 HEAT:-128.1332
 CYCLE:   370 TIME:   0.172 TIME LEFT:  2.00D  GRAD.:    15.532 HEAT:-128.1305
 CYCLE:   371 TIME:   0.068 TIME LEFT:  2.00D  GRAD.:    13.689 HEAT:-128.1326
 CYCLE:   372 TIME:   0.064 TIME LEFT:  2.00D  GRAD.:    13.350 HEAT:-128.1335
 CYCLE:   373 TIME:   0.064 TIME LEFT:  2.00D  GRAD.:    13.516 HEAT:-128.1338
 CYCLE:   374 TIME:   0.072 TIME LEFT:  2.00D  GRAD.:    13.315 HEAT:-128.1337
 CYCLE:   375 TIME:   0.064 TIME LEFT:  2.00D  GRAD.:    15.032 HEAT:-128.1275
 CYCLE:   376 TIME:   0.224 TIME LEFT:  2.00D  GRAD.:    26.367 HEAT:-128.1202
 CYCLE:   377 TIME:   0.064 TIME LEFT:  2.00D  GRAD.:    20.941 HEAT:-128.1260
 CYCLE:   378 TIME:   0.068 TIME LEFT:  2.00D  GRAD.:    13.618 HEAT:-128.1321
 CYCLE:   379 TIME:   0.068 TIME LEFT:  2.00D  GRAD.:    13.382 HEAT:-128.1333
 CYCLE:   380 TIME:   0.064 TIME LEFT:  2.00D  GRAD.:    13.386 HEAT:-128.1345
 CYCLE:   381 TIME:   0.064 TIME LEFT:  2.00D  GRAD.:    13.364 HEAT:-128.1347
 CYCLE:   382 TIME:   0.068 TIME LEFT:  2.00D  GRAD.:    13.489 HEAT:-128.1356
 CYCLE:   383 TIME:   0.064 TIME LEFT:  2.00D  GRAD.:    13.986 HEAT:-128.1316
 CYCLE:   384 TIME:   0.220 TIME LEFT:  2.00D  GRAD.:    19.649 HEAT:-128.1289
 CYCLE:   385 TIME:   0.060 TIME LEFT:  2.00D  GRAD.:    14.322 HEAT:-128.1351
 CYCLE:   386 TIME:   0.068 TIME LEFT:  2.00D  GRAD.:    13.622 HEAT:-128.1380
 CYCLE:   387 TIME:   0.064 TIME LEFT:  2.00D  GRAD.:    13.371 HEAT:-128.1385
 CYCLE:   388 TIME:   0.072 TIME LEFT:  2.00D  GRAD.:    13.319 HEAT:-128.1316
 CYCLE:   389 TIME:   0.072 TIME LEFT:  2.00D  GRAD.:    14.030 HEAT:-128.1335
 CYCLE:   390 TIME:   0.068 TIME LEFT:  2.00D  GRAD.:    13.371 HEAT:-128.1393
 CYCLE:   391 TIME:   0.068 TIME LEFT:  2.00D  GRAD.:    13.260 HEAT:-128.1387
 CYCLE:   392 TIME:   0.116 TIME LEFT:  2.00D  GRAD.:    13.420 HEAT:-128.1314
 CYCLE:   393 TIME:   0.072 TIME LEFT:  2.00D  GRAD.:    13.680 HEAT:-128.1381
 CYCLE:   394 TIME:   0.176 TIME LEFT:  2.00D  GRAD.:    14.011 HEAT:-128.1360
 CYCLE:   395 TIME:   0.172 TIME LEFT:  2.00D  GRAD.:    19.203 HEAT:-128.1347
 CYCLE:   396 TIME:   0.064 TIME LEFT:  2.00D  GRAD.:    14.658 HEAT:-128.1386
 CYCLE:   397 TIME:   0.068 TIME LEFT:  2.00D  GRAD.:    13.727 HEAT:-128.1404
 CYCLE:   398 TIME:   0.068 TIME LEFT:  2.00D  GRAD.:    13.479 HEAT:-128.1410
 CYCLE:   399 TIME:   0.064 TIME LEFT:  2.00D  GRAD.:    13.492 HEAT:-128.1412
 CYCLE:   400 TIME:   0.068 TIME LEFT:  2.00D  GRAD.:    13.548 HEAT:-128.1418
 CYCLE:   401 TIME:   0.064 TIME LEFT:  2.00D  GRAD.:    13.535 HEAT:-128.1432
 CYCLE:   402 TIME:   0.072 TIME LEFT:  2.00D  GRAD.:    16.909 HEAT:-128.1343
 CYCLE:   403 TIME:   0.068 TIME LEFT:  2.00D  GRAD.:    13.588 HEAT:-128.1434
 CYCLE:   404 TIME:   0.068 TIME LEFT:  2.00D  GRAD.:    13.636 HEAT:-128.1452
 CYCLE:   405 TIME:   0.068 TIME LEFT:  2.00D  GRAD.:    13.647 HEAT:-128.1424
 CYCLE:   406 TIME:   0.068 TIME LEFT:  2.00D  GRAD.:    13.715 HEAT:-128.1486
 CYCLE:   407 TIME:   0.228 TIME LEFT:  2.00D  GRAD.:    15.430 HEAT:-128.1435
 CYCLE:   408 TIME:   0.068 TIME LEFT:  2.00D  GRAD.:    13.794 HEAT:-128.1475
 CYCLE:   409 TIME:   0.064 TIME LEFT:  2.00D  GRAD.:    14.185 HEAT:-128.1473
 CYCLE:   410 TIME:   0.068 TIME LEFT:  2.00D  GRAD.:    13.894 HEAT:-128.1490
 CYCLE:   411 TIME:   0.124 TIME LEFT:  2.00D  GRAD.:    19.017 HEAT:-128.1436
 CYCLE:   412 TIME:   0.064 TIME LEFT:  2.00D  GRAD.:    14.469 HEAT:-128.1488
 CYCLE:   413 TIME:   0.068 TIME LEFT:  2.00D  GRAD.:    13.859 HEAT:-128.1488
 CYCLE:   414 TIME:   0.064 TIME LEFT:  2.00D  GRAD.:    13.649 HEAT:-128.1502
 CYCLE:   415 TIME:   0.172 TIME LEFT:  2.00D  GRAD.:    16.179 HEAT:-128.1467
 CYCLE:   416 TIME:   0.068 TIME LEFT:  2.00D  GRAD.:    14.001 HEAT:-128.1499
 CYCLE:   417 TIME:   0.064 TIME LEFT:  2.00D  GRAD.:    13.709 HEAT:-128.1503
 CYCLE:   418 TIME:   0.068 TIME LEFT:  2.00D  GRAD.:    13.706 HEAT:-128.1511
 CYCLE:   419 TIME:   0.068 TIME LEFT:  2.00D  GRAD.:    15.479 HEAT:-128.1497
 CYCLE:   420 TIME:   0.072 TIME LEFT:  2.00D  GRAD.:    13.833 HEAT:-128.1526
 CYCLE:   421 TIME:   0.064 TIME LEFT:  2.00D  GRAD.:    13.892 HEAT:-128.1522
 CYCLE:   422 TIME:   0.064 TIME LEFT:  2.00D  GRAD.:    14.100 HEAT:-128.1546
 CYCLE:   423 TIME:   0.068 TIME LEFT:  2.00D  GRAD.:    14.559 HEAT:-128.1556
 CYCLE:   424 TIME:   0.176 TIME LEFT:  2.00D  GRAD.:    15.805 HEAT:-128.1488
 CYCLE:   425 TIME:   0.176 TIME LEFT:  2.00D  GRAD.:    25.224 HEAT:-128.1451
 CYCLE:   426 TIME:   0.072 TIME LEFT:  2.00D  GRAD.:    15.530 HEAT:-128.1544
 CYCLE:   427 TIME:   0.064 TIME LEFT:  2.00D  GRAD.:    13.751 HEAT:-128.1565
 CYCLE:   428 TIME:   0.068 TIME LEFT:  2.00D  GRAD.:    13.760 HEAT:-128.1573
 CYCLE:   429 TIME:   0.072 TIME LEFT:  2.00D  GRAD.:    13.965 HEAT:-128.1569
 CYCLE:   430 TIME:   0.068 TIME LEFT:  2.00D  GRAD.:    13.802 HEAT:-128.1582
 CYCLE:   431 TIME:   0.064 TIME LEFT:  2.00D  GRAD.:    14.029 HEAT:-128.1557
 CYCLE:   432 TIME:   0.120 TIME LEFT:  2.00D  GRAD.:    14.325 HEAT:-128.1460
 CYCLE:   433 TIME:   0.064 TIME LEFT:  2.00D  GRAD.:    13.667 HEAT:-128.1549
 CYCLE:   434 TIME:   0.068 TIME LEFT:  2.00D  GRAD.:    13.877 HEAT:-128.1571
 CYCLE:   435 TIME:   0.068 TIME LEFT:  2.00D  GRAD.:    13.912 HEAT:-128.1586
 CYCLE:   436 TIME:   0.068 TIME LEFT:  2.00D  GRAD.:    14.093 HEAT:-128.1606
 CYCLE:   437 TIME:   0.072 TIME LEFT:  2.00D  GRAD.:    14.509 HEAT:-128.1587
 CYCLE:   438 TIME:   0.268 TIME LEFT:  2.00D  GRAD.:    24.378 HEAT:-128.1488
 CYCLE:   439 TIME:   0.064 TIME LEFT:  2.00D  GRAD.:    16.169 HEAT:-128.1583
 CYCLE:   440 TIME:   0.064 TIME LEFT:  2.00D  GRAD.:    13.960 HEAT:-128.1630
 CYCLE:   441 TIME:   0.068 TIME LEFT:  2.00D  GRAD.:    13.843 HEAT:-128.1645
 CYCLE:   442 TIME:   0.068 TIME LEFT:  2.00D  GRAD.:    13.858 HEAT:-128.1639
 CYCLE:   443 TIME:   0.072 TIME LEFT:  2.00D  GRAD.:    13.759 HEAT:-128.1642
 CYCLE:   444 TIME:   0.124 TIME LEFT:  2.00D  GRAD.:    14.994 HEAT:-128.1546
 CYCLE:   445 TIME:   0.068 TIME LEFT:  2.00D  GRAD.:    19.383 HEAT:-128.1466
 CYCLE:   446 TIME:   0.068 TIME LEFT:  2.00D  GRAD.:    14.038 HEAT:-128.1607
 CYCLE:   447 TIME:   0.064 TIME LEFT:  2.00D  GRAD.:    13.833 HEAT:-128.1648
 CYCLE:   448 TIME:   0.068 TIME LEFT:  2.00D  GRAD.:    13.910 HEAT:-128.1639
 CYCLE:   449 TIME:   0.068 TIME LEFT:  2.00D  GRAD.:    13.864 HEAT:-128.1644
 CYCLE:   450 TIME:   0.168 TIME LEFT:  2.00D  GRAD.:    14.631 HEAT:-128.1575
 CYCLE:   451 TIME:   0.068 TIME LEFT:  2.00D  GRAD.:    18.200 HEAT:-128.1489
 CYCLE:   452 TIME:   0.068 TIME LEFT:  2.00D  GRAD.:    14.523 HEAT:-128.1610
 CYCLE:   453 TIME:   0.064 TIME LEFT:  2.00D  GRAD.:    14.065 HEAT:-128.1659
 CYCLE:   454 TIME:   0.072 TIME LEFT:  2.00D  GRAD.:    14.046 HEAT:-128.1630
 CYCLE:   455 TIME:   0.068 TIME LEFT:  2.00D  GRAD.:    14.052 HEAT:-128.1657
 CYCLE:   456 TIME:   0.116 TIME LEFT:  2.00D  GRAD.:    15.757 HEAT:-128.1587
 CYCLE:   457 TIME:   0.068 TIME LEFT:  2.00D  GRAD.:    13.956 HEAT:-128.1651
 CYCLE:   458 TIME:   0.068 TIME LEFT:  2.00D  GRAD.:    13.993 HEAT:-128.1632
 CYCLE:   459 TIME:   0.068 TIME LEFT:  2.00D  GRAD.:    14.642 HEAT:-128.1635
 CYCLE:   460 TIME:   0.064 TIME LEFT:  2.00D  GRAD.:    13.909 HEAT:-128.1644
 CYCLE:   461 TIME:   0.116 TIME LEFT:  2.00D  GRAD.:    14.877 HEAT:-128.1638
 CYCLE:   462 TIME:   0.068 TIME LEFT:  2.00D  GRAD.:    13.741 HEAT:-128.1667
 CYCLE:   463 TIME:   0.064 TIME LEFT:  2.00D  GRAD.:    13.842 HEAT:-128.1669
 CYCLE:   464 TIME:   0.064 TIME LEFT:  2.00D  GRAD.:    13.794 HEAT:-128.1674
 CYCLE:   465 TIME:   0.120 TIME LEFT:  2.00D  GRAD.:    14.637 HEAT:-128.1600
 CYCLE:   466 TIME:   0.124 TIME LEFT:  2.00D  GRAD.:    17.033 HEAT:-128.1579
 CYCLE:   467 TIME:   0.064 TIME LEFT:  2.00D  GRAD.:    14.061 HEAT:-128.1655
 CYCLE:   468 TIME:   0.068 TIME LEFT:  2.00D  GRAD.:    13.818 HEAT:-128.1679
 CYCLE:   469 TIME:   0.068 TIME LEFT:  2.00D  GRAD.:    13.686 HEAT:-128.1681
 CYCLE:   470 TIME:   0.068 TIME LEFT:  2.00D  GRAD.:    13.952 HEAT:-128.1649
 CYCLE:   471 TIME:   0.068 TIME LEFT:  2.00D  GRAD.:    14.480 HEAT:-128.1644
 CYCLE:   472 TIME:   0.068 TIME LEFT:  2.00D  GRAD.:    13.765 HEAT:-128.1685
 CYCLE:   473 TIME:   0.068 TIME LEFT:  2.00D  GRAD.:    14.205 HEAT:-128.1624
 CYCLE:   474 TIME:   0.068 TIME LEFT:  2.00D  GRAD.:    14.034 HEAT:-128.1657
 CYCLE:   475 TIME:   0.116 TIME LEFT:  2.00D  GRAD.:    14.683 HEAT:-128.1570
 CYCLE:   476 TIME:   0.068 TIME LEFT:  2.00D  GRAD.:    13.854 HEAT:-128.1668
 CYCLE:   477 TIME:   0.068 TIME LEFT:  2.00D  GRAD.:    13.745 HEAT:-128.1678
 CYCLE:   478 TIME:   0.064 TIME LEFT:  2.00D  GRAD.:    13.846 HEAT:-128.1685
 CYCLE:   479 TIME:   0.072 TIME LEFT:  2.00D  GRAD.:    14.750 HEAT:-128.1639
 CYCLE:   480 TIME:   0.064 TIME LEFT:  2.00D  GRAD.:    13.742 HEAT:-128.1708
 CYCLE:   481 TIME:   0.064 TIME LEFT:  2.00D  GRAD.:    13.700 HEAT:-128.1711
 CYCLE:   482 TIME:   0.068 TIME LEFT:  2.00D  GRAD.:    14.217 HEAT:-128.1687
 CYCLE:   483 TIME:   0.068 TIME LEFT:  2.00D  GRAD.:    13.824 HEAT:-128.1641
 CYCLE:   484 TIME:   0.224 TIME LEFT:  2.00D  GRAD.:    14.639 HEAT:-128.1690
 CYCLE:   485 TIME:   0.168 TIME LEFT:  2.00D  GRAD.:    16.362 HEAT:-128.1676
 CYCLE:   486 TIME:   0.068 TIME LEFT:  2.00D  GRAD.:    14.006 HEAT:-128.1708
 CYCLE:   487 TIME:   0.068 TIME LEFT:  2.00D  GRAD.:    13.907 HEAT:-128.1731
 CYCLE:   488 TIME:   0.064 TIME LEFT:  2.00D  GRAD.:    13.880 HEAT:-128.1737
 CYCLE:   489 TIME:   0.068 TIME LEFT:  2.00D  GRAD.:    14.123 HEAT:-128.1736
 CYCLE:   490 TIME:   0.072 TIME LEFT:  2.00D  GRAD.:    14.704 HEAT:-128.1708
 CYCLE:   491 TIME:   0.064 TIME LEFT:  2.00D  GRAD.:    14.198 HEAT:-128.1706
 CYCLE:   492 TIME:   0.068 TIME LEFT:  2.00D  GRAD.:    18.610 HEAT:-128.1665
 CYCLE:   493 TIME:   0.068 TIME LEFT:  2.00D  GRAD.:    13.567 HEAT:-128.1735
 CYCLE:   494 TIME:   0.068 TIME LEFT:  2.00D  GRAD.:    14.261 HEAT:-128.1730
 CYCLE:   495 TIME:   0.072 TIME LEFT:  2.00D  GRAD.:    13.535 HEAT:-128.1751
 CYCLE:   496 TIME:   0.068 TIME LEFT:  2.00D  GRAD.:    14.309 HEAT:-128.1753
 CYCLE:   497 TIME:   0.124 TIME LEFT:  2.00D  GRAD.:    14.622 HEAT:-128.1713
 CYCLE:   498 TIME:   0.124 TIME LEFT:  2.00D  GRAD.:    22.410 HEAT:-128.1640
 CYCLE:   499 TIME:   0.068 TIME LEFT:  2.00D  GRAD.:    13.930 HEAT:-128.1746
 CYCLE:   500 TIME:   0.064 TIME LEFT:  2.00D  GRAD.:    13.820 HEAT:-128.1758
 CYCLE:   501 TIME:   0.068 TIME LEFT:  2.00D  GRAD.:    13.743 HEAT:-128.1760
 CYCLE:   502 TIME:   0.064 TIME LEFT:  2.00D  GRAD.:    14.765 HEAT:-128.1717
 CYCLE:   503 TIME:   0.068 TIME LEFT:  2.00D  GRAD.:    15.472 HEAT:-128.1659
 CYCLE:   504 TIME:   0.068 TIME LEFT:  2.00D  GRAD.:    13.730 HEAT:-128.1764
 CYCLE:   505 TIME:   0.068 TIME LEFT:  2.00D  GRAD.:    14.263 HEAT:-128.1758
 CYCLE:   506 TIME:   0.064 TIME LEFT:  2.00D  GRAD.:    13.612 HEAT:-128.1770
 CYCLE:   507 TIME:   0.068 TIME LEFT:  2.00D  GRAD.:    14.916 HEAT:-128.1740
 CYCLE:   508 TIME:   0.068 TIME LEFT:  2.00D  GRAD.:    15.816 HEAT:-128.1665
 CYCLE:   509 TIME:   0.068 TIME LEFT:  2.00D  GRAD.:    13.679 HEAT:-128.1791
 CYCLE:   510 TIME:   0.172 TIME LEFT:  2.00D  GRAD.:    15.112 HEAT:-128.1738
 CYCLE:   511 TIME:   0.072 TIME LEFT:  2.00D  GRAD.:    13.682 HEAT:-128.1791
 CYCLE:   512 TIME:   0.072 TIME LEFT:  2.00D  GRAD.:    13.965 HEAT:-128.1788
 CYCLE:   513 TIME:   0.068 TIME LEFT:  2.00D  GRAD.:    13.729 HEAT:-128.1796
 CYCLE:   514 TIME:   0.120 TIME LEFT:  2.00D  GRAD.:    15.318 HEAT:-128.1717
 CYCLE:   515 TIME:   0.072 TIME LEFT:  2.00D  GRAD.:    13.624 HEAT:-128.1787
 CYCLE:   516 TIME:   0.068 TIME LEFT:  2.00D  GRAD.:    13.615 HEAT:-128.1803
 CYCLE:   517 TIME:   0.120 TIME LEFT:  2.00D  GRAD.:    13.706 HEAT:-128.1759
 CYCLE:   518 TIME:   0.072 TIME LEFT:  2.00D  GRAD.:    13.724 HEAT:-128.1740
 CYCLE:   519 TIME:   0.116 TIME LEFT:  2.00D  GRAD.:    16.812 HEAT:-128.1699
 CYCLE:   520 TIME:   0.064 TIME LEFT:  2.00D  GRAD.:    14.119 HEAT:-128.1784
 CYCLE:   521 TIME:   0.068 TIME LEFT:  2.00D  GRAD.:    13.601 HEAT:-128.1800
 CYCLE:   522 TIME:   0.068 TIME LEFT:  2.00D  GRAD.:    14.069 HEAT:-128.1792
 CYCLE:   523 TIME:   0.068 TIME LEFT:  2.00D  GRAD.:    15.421 HEAT:-128.1766
 CYCLE:   524 TIME:   0.064 TIME LEFT:  2.00D  GRAD.:    13.713 HEAT:-128.1812
 CYCLE:   525 TIME:   0.064 TIME LEFT:  2.00D  GRAD.:    14.277 HEAT:-128.1810
 CYCLE:   526 TIME:   0.072 TIME LEFT:  2.00D  GRAD.:    13.804 HEAT:-128.1781
 CYCLE:   527 TIME:   0.124 TIME LEFT:  2.00D  GRAD.:    16.454 HEAT:-128.1721
 CYCLE:   528 TIME:   0.064 TIME LEFT:  2.00D  GRAD.:    14.025 HEAT:-128.1788
 CYCLE:   529 TIME:   0.072 TIME LEFT:  2.00D  GRAD.:    14.961 HEAT:-128.1805
 CYCLE:   530 TIME:   0.072 TIME LEFT:  2.00D  GRAD.:    13.827 HEAT:-128.1815
 CYCLE:   531 TIME:   0.068 TIME LEFT:  2.00D  GRAD.:    13.886 HEAT:-128.1812
 CYCLE:   532 TIME:   0.068 TIME LEFT:  2.00D  GRAD.:    14.900 HEAT:-128.1809
 CYCLE:   533 TIME:   0.064 TIME LEFT:  2.00D  GRAD.:    13.647 HEAT:-128.1823
 CYCLE:   534 TIME:   0.068 TIME LEFT:  2.00D  GRAD.:    13.722 HEAT:-128.1826
 CYCLE:   535 TIME:   0.068 TIME LEFT:  2.00D  GRAD.:    13.530 HEAT:-128.1836
 CYCLE:   536 TIME:   0.064 TIME LEFT:  2.00D  GRAD.:    13.959 HEAT:-128.1831
 CYCLE:   537 TIME:   0.068 TIME LEFT:  2.00D  GRAD.:    15.055 HEAT:-128.1734
 CYCLE:   538 TIME:   0.068 TIME LEFT:  2.00D  GRAD.:    13.971 HEAT:-128.1791
 CYCLE:   539 TIME:   0.120 TIME LEFT:  2.00D  GRAD.:    14.169 HEAT:-128.1832
 CYCLE:   540 TIME:   0.064 TIME LEFT:  2.00D  GRAD.:    13.686 HEAT:-128.1845
 CYCLE:   541 TIME:   0.068 TIME LEFT:  2.00D  GRAD.:    13.741 HEAT:-128.1854
 CYCLE:   542 TIME:   0.064 TIME LEFT:  2.00D  GRAD.:    13.493 HEAT:-128.1867
 CYCLE:   543 TIME:   0.068 TIME LEFT:  2.00D  GRAD.:    13.447 HEAT:-128.1885
 CYCLE:   544 TIME:   0.068 TIME LEFT:  2.00D  GRAD.:    14.959 HEAT:-128.1791
 CYCLE:   545 TIME:   0.224 TIME LEFT:  2.00D  GRAD.:    14.642 HEAT:-128.1794
 CYCLE:   546 TIME:   0.068 TIME LEFT:  2.00D  GRAD.:    13.744 HEAT:-128.1864
 CYCLE:   547 TIME:   0.064 TIME LEFT:  2.00D  GRAD.:    13.812 HEAT:-128.1897
 CYCLE:   548 TIME:   0.064 TIME LEFT:  2.00D  GRAD.:    14.292 HEAT:-128.1877
 CYCLE:   549 TIME:   0.068 TIME LEFT:  2.00D  GRAD.:    15.514 HEAT:-128.1813
 CYCLE:   550 TIME:   0.068 TIME LEFT:  2.00D  GRAD.:    13.961 HEAT:-128.1885
 CYCLE:   551 TIME:   0.068 TIME LEFT:  2.00D  GRAD.:    16.521 HEAT:-128.1800
 CYCLE:   552 TIME:   0.068 TIME LEFT:  2.00D  GRAD.:    13.720 HEAT:-128.1902
 CYCLE:   553 TIME:   0.172 TIME LEFT:  2.00D  GRAD.:    15.125 HEAT:-128.1878
 CYCLE:   554 TIME:   0.068 TIME LEFT:  2.00D  GRAD.:    13.767 HEAT:-128.1911
 CYCLE:   555 TIME:   0.064 TIME LEFT:  2.00D  GRAD.:    13.883 HEAT:-128.1915
 CYCLE:   556 TIME:   0.072 TIME LEFT:  2.00D  GRAD.:    16.068 HEAT:-128.1818
 CYCLE:   557 TIME:   0.068 TIME LEFT:  2.00D  GRAD.:    13.524 HEAT:-128.1877
 CYCLE:   558 TIME:   0.180 TIME LEFT:  2.00D  GRAD.:    18.999 HEAT:-128.1779
 CYCLE:   559 TIME:   0.064 TIME LEFT:  2.00D  GRAD.:    14.572 HEAT:-128.1869
 CYCLE:   560 TIME:   0.068 TIME LEFT:  2.00D  GRAD.:    13.538 HEAT:-128.1896
 CYCLE:   561 TIME:   0.060 TIME LEFT:  2.00D  GRAD.:    13.481 HEAT:-128.1919
 CYCLE:   562 TIME:   0.068 TIME LEFT:  2.00D  GRAD.:    13.680 HEAT:-128.1926
 CYCLE:   563 TIME:   0.072 TIME LEFT:  2.00D  GRAD.:    13.632 HEAT:-128.1914
 CYCLE:   564 TIME:   0.068 TIME LEFT:  2.00D  GRAD.:    14.357 HEAT:-128.1907
 CYCLE:   565 TIME:   0.168 TIME LEFT:  2.00D  GRAD.:    14.700 HEAT:-128.1819
 CYCLE:   566 TIME:   0.068 TIME LEFT:  2.00D  GRAD.:    13.770 HEAT:-128.1889
 CYCLE:   567 TIME:   0.064 TIME LEFT:  2.00D  GRAD.:    14.136 HEAT:-128.1905
 CYCLE:   568 TIME:   0.064 TIME LEFT:  2.00D  GRAD.:    13.816 HEAT:-128.1916
 CYCLE:   569 TIME:   0.072 TIME LEFT:  2.00D  GRAD.:    15.207 HEAT:-128.1848
 CYCLE:   570 TIME:   0.068 TIME LEFT:  2.00D  GRAD.:    14.235 HEAT:-128.1892
 CYCLE:   571 TIME:   0.068 TIME LEFT:  2.00D  GRAD.:    14.574 HEAT:-128.1837
 CYCLE:   572 TIME:   0.064 TIME LEFT:  2.00D  GRAD.:    13.810 HEAT:-128.1921
 CYCLE:   573 TIME:   0.124 TIME LEFT:  2.00D  GRAD.:    14.662 HEAT:-128.1865
 CYCLE:   574 TIME:   0.068 TIME LEFT:  2.00D  GRAD.:    14.051 HEAT:-128.1887
 CYCLE:   575 TIME:   0.064 TIME LEFT:  2.00D  GRAD.:    13.746 HEAT:-128.1929
 CYCLE:   576 TIME:   0.124 TIME LEFT:  2.00D  GRAD.:    14.438 HEAT:-128.1892
 CYCLE:   577 TIME:   0.064 TIME LEFT:  2.00D  GRAD.:    13.908 HEAT:-128.1906
 CYCLE:   578 TIME:   0.064 TIME LEFT:  2.00D  GRAD.:    13.660 HEAT:-128.1938
 CYCLE:   579 TIME:   0.072 TIME LEFT:  2.00D  GRAD.:    14.959 HEAT:-128.1861
 CYCLE:   580 TIME:   0.068 TIME LEFT:  2.00D  GRAD.:    13.729 HEAT:-128.1915
 CYCLE:   581 TIME:   0.064 TIME LEFT:  2.00D  GRAD.:    13.762 HEAT:-128.1939
 CYCLE:   582 TIME:   0.068 TIME LEFT:  2.00D  GRAD.:    13.998 HEAT:-128.1930
 CYCLE:   583 TIME:   0.072 TIME LEFT:  2.00D  GRAD.:    15.135 HEAT:-128.1867
 CYCLE:   584 TIME:   0.068 TIME LEFT:  2.00D  GRAD.:    13.919 HEAT:-128.1912
 CYCLE:   585 TIME:   0.068 TIME LEFT:  2.00D  GRAD.:    13.880 HEAT:-128.1930
 CYCLE:   586 TIME:   0.116 TIME LEFT:  2.00D  GRAD.:    14.440 HEAT:-128.1857
 CYCLE:   587 TIME:   0.068 TIME LEFT:  2.00D  GRAD.:    13.951 HEAT:-128.1921
 CYCLE:   588 TIME:   0.072 TIME LEFT:  2.00D  GRAD.:    13.644 HEAT:-128.1906
 CYCLE:   589 TIME:   0.172 TIME LEFT:  2.00D  GRAD.:    14.801 HEAT:-128.1838
 CYCLE:   590 TIME:   0.068 TIME LEFT:  2.00D  GRAD.:    13.653 HEAT:-128.1939
 CYCLE:   591 TIME:   0.068 TIME LEFT:  2.00D  GRAD.:    13.764 HEAT:-128.1970
 CYCLE:   592 TIME:   0.068 TIME LEFT:  2.00D  GRAD.:    13.675 HEAT:-128.1963
 CYCLE:   593 TIME:   0.068 TIME LEFT:  2.00D  GRAD.:    14.268 HEAT:-128.1963
 CYCLE:   594 TIME:   0.068 TIME LEFT:  2.00D  GRAD.:    15.166 HEAT:-128.1888
 CYCLE:   595 TIME:   0.068 TIME LEFT:  2.00D  GRAD.:    13.494 HEAT:-128.1984
 CYCLE:   596 TIME:   0.068 TIME LEFT:  2.00D  GRAD.:    13.620 HEAT:-128.2002
 CYCLE:   597 TIME:   0.068 TIME LEFT:  2.00D  GRAD.:    13.663 HEAT:-128.2013
 CYCLE:   598 TIME:   0.176 TIME LEFT:  2.00D  GRAD.:    13.876 HEAT:-128.1928
 CYCLE:   599 TIME:   0.072 TIME LEFT:  2.00D  GRAD.:    14.313 HEAT:-128.1917
 CYCLE:   600 TIME:   0.068 TIME LEFT:  2.00D  GRAD.:    13.508 HEAT:-128.2006
 CYCLE:   601 TIME:   0.124 TIME LEFT:  2.00D  GRAD.:    13.747 HEAT:-128.1995
 CYCLE:   602 TIME:   0.072 TIME LEFT:  2.00D  GRAD.:    13.645 HEAT:-128.1982
 CYCLE:   603 TIME:   0.072 TIME LEFT:  2.00D  GRAD.:    14.255 HEAT:-128.1954
 CYCLE:   604 TIME:   0.176 TIME LEFT:  2.00D  GRAD.:    16.081 HEAT:-128.1938
 CYCLE:   605 TIME:   0.068 TIME LEFT:  2.00D  GRAD.:    13.481 HEAT:-128.2014
 CYCLE:   606 TIME:   0.064 TIME LEFT:  2.00D  GRAD.:    13.870 HEAT:-128.2028
 CYCLE:   607 TIME:   0.068 TIME LEFT:  2.00D  GRAD.:    13.530 HEAT:-128.2033
 CYCLE:   608 TIME:   0.068 TIME LEFT:  2.00D  GRAD.:    13.510 HEAT:-128.2035
 CYCLE:   609 TIME:   0.064 TIME LEFT:  2.00D  GRAD.:    13.854 HEAT:-128.2042
 CYCLE:   610 TIME:   0.068 TIME LEFT:  2.00D  GRAD.:    13.952 HEAT:-128.2043
 CYCLE:   611 TIME:   0.312 TIME LEFT:  2.00D  GRAD.:    21.546 HEAT:-128.1992
 CYCLE:   612 TIME:   0.068 TIME LEFT:  2.00D  GRAD.:    17.761 HEAT:-128.2026
 CYCLE:   613 TIME:   0.064 TIME LEFT:  2.00D  GRAD.:    13.803 HEAT:-128.2057
 CYCLE:   614 TIME:   0.068 TIME LEFT:  2.00D  GRAD.:    13.490 HEAT:-128.2062
 CYCLE:   615 TIME:   0.068 TIME LEFT:  2.00D  GRAD.:    13.448 HEAT:-128.2065
 CYCLE:   616 TIME:   0.064 TIME LEFT:  2.00D  GRAD.:    13.493 HEAT:-128.2063
 CYCLE:   617 TIME:   0.120 TIME LEFT:  2.00D  GRAD.:    18.914 HEAT:-128.2012
 CYCLE:   618 TIME:   0.068 TIME LEFT:  2.00D  GRAD.:    14.075 HEAT:-128.2058
 CYCLE:   619 TIME:   0.068 TIME LEFT:  2.00D  GRAD.:    13.430 HEAT:-128.2068
 CYCLE:   620 TIME:   0.072 TIME LEFT:  2.00D  GRAD.:    13.507 HEAT:-128.2046
 CYCLE:   621 TIME:   0.068 TIME LEFT:  2.00D  GRAD.:    13.990 HEAT:-128.2062
 CYCLE:   622 TIME:   0.172 TIME LEFT:  2.00D  GRAD.:    18.007 HEAT:-128.2011
 CYCLE:   623 TIME:   0.064 TIME LEFT:  2.00D  GRAD.:    13.766 HEAT:-128.2057
 CYCLE:   624 TIME:   0.068 TIME LEFT:  2.00D  GRAD.:    13.671 HEAT:-128.2070
 CYCLE:   625 TIME:   0.064 TIME LEFT:  2.00D  GRAD.:    13.925 HEAT:-128.2068
 CYCLE:   626 TIME:   0.068 TIME LEFT:  2.00D  GRAD.:    13.353 HEAT:-128.2076
 CYCLE:   627 TIME:   0.068 TIME LEFT:  2.00D  GRAD.:    13.530 HEAT:-128.2071
 CYCLE:   628 TIME:   0.068 TIME LEFT:  2.00D  GRAD.:    13.524 HEAT:-128.2079
 CYCLE:   629 TIME:   0.068 TIME LEFT:  2.00D  GRAD.:    13.357 HEAT:-128.2084
 CYCLE:   630 TIME:   0.068 TIME LEFT:  2.00D  GRAD.:    13.785 HEAT:-128.1993
 CYCLE:   631 TIME:   0.272 TIME LEFT:  2.00D  GRAD.:    16.268 HEAT:-128.1990
 CYCLE:   632 TIME:   0.068 TIME LEFT:  2.00D  GRAD.:    14.913 HEAT:-128.2017
 CYCLE:   633 TIME:   0.068 TIME LEFT:  2.00D  GRAD.:    14.011 HEAT:-128.2057
 CYCLE:   634 TIME:   0.064 TIME LEFT:  2.00D  GRAD.:    13.662 HEAT:-128.2090
 CYCLE:   635 TIME:   0.068 TIME LEFT:  2.00D  GRAD.:    13.482 HEAT:-128.2083
 CYCLE:   636 TIME:   0.072 TIME LEFT:  2.00D  GRAD.:    16.270 HEAT:-128.1989
 CYCLE:   637 TIME:   0.064 TIME LEFT:  2.00D  GRAD.:    13.691 HEAT:-128.2045
 CYCLE:   638 TIME:   0.072 TIME LEFT:  2.00D  GRAD.:    13.820 HEAT:-128.2090
 CYCLE:   639 TIME:   0.072 TIME LEFT:  2.00D  GRAD.:    13.978 HEAT:-128.2056
 CYCLE:   640 TIME:   0.072 TIME LEFT:  2.00D  GRAD.:    14.517 HEAT:-128.2052
 CYCLE:   641 TIME:   0.072 TIME LEFT:  2.00D  GRAD.:    13.595 HEAT:-128.2122
 CYCLE:   642 TIME:   0.124 TIME LEFT:  2.00D  GRAD.:    13.697 HEAT:-128.2072
 CYCLE:   643 TIME:   0.076 TIME LEFT:  2.00D  GRAD.:    13.905 HEAT:-128.2076
 CYCLE:   644 TIME:   0.068 TIME LEFT:  2.00D  GRAD.:    13.508 HEAT:-128.2112
 CYCLE:   645 TIME:   0.124 TIME LEFT:  2.00D  GRAD.:    13.655 HEAT:-128.2086
 CYCLE:   646 TIME:   0.072 TIME LEFT:  2.00D  GRAD.:    14.148 HEAT:-128.2064
 CYCLE:   647 TIME:   0.072 TIME LEFT:  2.00D  GRAD.:    13.540 HEAT:-128.2126
 CYCLE:   648 TIME:   0.072 TIME LEFT:  2.00D  GRAD.:    14.226 HEAT:-128.2027
 CYCLE:   649 TIME:   0.068 TIME LEFT:  2.00D  GRAD.:    13.378 HEAT:-128.2132
 CYCLE:   650 TIME:   0.180 TIME LEFT:  2.00D  GRAD.:    13.865 HEAT:-128.2108
 CYCLE:   651 TIME:   0.072 TIME LEFT:  2.00D  GRAD.:    13.522 HEAT:-128.2125
 CYCLE:   652 TIME:   0.072 TIME LEFT:  2.00D  GRAD.:    13.451 HEAT:-128.2058
 CYCLE:   653 TIME:   0.124 TIME LEFT:  2.00D  GRAD.:    14.035 HEAT:-128.2110
 CYCLE:   654 TIME:   0.180 TIME LEFT:  2.00D  GRAD.:    14.287 HEAT:-128.2093
 CYCLE:   655 TIME:   0.068 TIME LEFT:  2.00D  GRAD.:    13.075 HEAT:-128.2119
 CYCLE:   656 TIME:   0.068 TIME LEFT:  2.00D  GRAD.:    13.404 HEAT:-128.2131
 CYCLE:   657 TIME:   0.068 TIME LEFT:  2.00D  GRAD.:    13.436 HEAT:-128.2137
 CYCLE:   658 TIME:   0.068 TIME LEFT:  2.00D  GRAD.:    13.795 HEAT:-128.2139
 CYCLE:   659 TIME:   0.068 TIME LEFT:  2.00D  GRAD.:    13.354 HEAT:-128.2150
 CYCLE:   660 TIME:   0.068 TIME LEFT:  2.00D  GRAD.:    13.399 HEAT:-128.2156
 CYCLE:   661 TIME:   0.068 TIME LEFT:  2.00D  GRAD.:    13.448 HEAT:-128.2108
 CYCLE:   662 TIME:   0.072 TIME LEFT:  2.00D  GRAD.:    13.490 HEAT:-128.2156
 CYCLE:   663 TIME:   0.236 TIME LEFT:  2.00D  GRAD.:    14.135 HEAT:-128.2149
 CYCLE:   664 TIME:   0.120 TIME LEFT:  2.00D  GRAD.:    14.496 HEAT:-128.2119
 CYCLE:   665 TIME:   0.072 TIME LEFT:  2.00D  GRAD.:    13.300 HEAT:-128.2155
 CYCLE:   666 TIME:   0.064 TIME LEFT:  2.00D  GRAD.:    14.034 HEAT:-128.2175
 CYCLE:   667 TIME:   0.068 TIME LEFT:  2.00D  GRAD.:    13.352 HEAT:-128.2184
 CYCLE:   668 TIME:   0.064 TIME LEFT:  2.00D  GRAD.:    13.211 HEAT:-128.2188
 CYCLE:   669 TIME:   0.072 TIME LEFT:  2.00D  GRAD.:    13.051 HEAT:-128.2172
 CYCLE:   670 TIME:   0.068 TIME LEFT:  2.00D  GRAD.:    13.600 HEAT:-128.2177
 CYCLE:   671 TIME:   0.124 TIME LEFT:  2.00D  GRAD.:    13.696 HEAT:-128.2154
 CYCLE:   672 TIME:   0.180 TIME LEFT:  2.00D  GRAD.:    21.424 HEAT:-128.2103
 CYCLE:   673 TIME:   0.064 TIME LEFT:  2.00D  GRAD.:    14.356 HEAT:-128.2174
 CYCLE:   674 TIME:   0.068 TIME LEFT:  2.00D  GRAD.:    13.108 HEAT:-128.2198
 CYCLE:   675 TIME:   0.064 TIME LEFT:  2.00D  GRAD.:    13.099 HEAT:-128.2198
 CYCLE:   676 TIME:   0.068 TIME LEFT:  2.00D  GRAD.:    13.200 HEAT:-128.2192
 CYCLE:   677 TIME:   0.068 TIME LEFT:  2.00D  GRAD.:    13.350 HEAT:-128.2140
 CYCLE:   678 TIME:   0.168 TIME LEFT:  2.00D  GRAD.:    18.150 HEAT:-128.2098
 CYCLE:   679 TIME:   0.064 TIME LEFT:  2.00D  GRAD.:    14.183 HEAT:-128.2153
 CYCLE:   680 TIME:   0.068 TIME LEFT:  2.00D  GRAD.:    13.190 HEAT:-128.2181
 CYCLE:   681 TIME:   0.068 TIME LEFT:  2.00D  GRAD.:    13.024 HEAT:-128.2202
 CYCLE:   682 TIME:   0.068 TIME LEFT:  2.00D  GRAD.:    13.079 HEAT:-128.2198
 CYCLE:   683 TIME:   0.072 TIME LEFT:  2.00D  GRAD.:    12.979 HEAT:-128.2208
 CYCLE:   684 TIME:   0.072 TIME LEFT:  2.00D  GRAD.:    13.521 HEAT:-128.2135
 CYCLE:   685 TIME:   0.180 TIME LEFT:  2.00D  GRAD.:    19.117 HEAT:-128.2052
 CYCLE:   686 TIME:   0.064 TIME LEFT:  2.00D  GRAD.:    13.187 HEAT:-128.2167
 CYCLE:   687 TIME:   0.068 TIME LEFT:  2.00D  GRAD.:    12.783 HEAT:-128.2221
 CYCLE:   688 TIME:   0.068 TIME LEFT:  2.00D  GRAD.:    13.065 HEAT:-128.2222
 CYCLE:   689 TIME:   0.064 TIME LEFT:  2.00D  GRAD.:    13.014 HEAT:-128.2237
 CYCLE:   690 TIME:   0.076 TIME LEFT:  2.00D  GRAD.:    13.467 HEAT:-128.2174
 CYCLE:   691 TIME:   0.172 TIME LEFT:  2.00D  GRAD.:    21.507 HEAT:-128.2094
 CYCLE:   692 TIME:   0.064 TIME LEFT:  2.00D  GRAD.:    13.100 HEAT:-128.2202
 CYCLE:   693 TIME:   0.068 TIME LEFT:  2.00D  GRAD.:    12.866 HEAT:-128.2234
 CYCLE:   694 TIME:   0.068 TIME LEFT:  2.00D  GRAD.:    12.819 HEAT:-128.2218
 CYCLE:   695 TIME:   0.072 TIME LEFT:  2.00D  GRAD.:    12.768 HEAT:-128.2261
 CYCLE:   696 TIME:   0.176 TIME LEFT:  2.00D  GRAD.:    13.147 HEAT:-128.2217
 CYCLE:   697 TIME:   0.068 TIME LEFT:  2.00D  GRAD.:    12.809 HEAT:-128.2206
 CYCLE:   698 TIME:   0.172 TIME LEFT:  2.00D  GRAD.:    14.317 HEAT:-128.2213
 CYCLE:   699 TIME:   0.064 TIME LEFT:  2.00D  GRAD.:    12.948 HEAT:-128.2241
 CYCLE:   700 TIME:   0.068 TIME LEFT:  2.00D  GRAD.:    12.860 HEAT:-128.2257
 CYCLE:   701 TIME:   0.068 TIME LEFT:  2.00D  GRAD.:    12.812 HEAT:-128.2253
 CYCLE:   702 TIME:   0.068 TIME LEFT:  2.00D  GRAD.:    13.324 HEAT:-128.2252
 CYCLE:   703 TIME:   0.120 TIME LEFT:  2.00D  GRAD.:    20.954 HEAT:-128.2168
 CYCLE:   704 TIME:   0.064 TIME LEFT:  2.00D  GRAD.:    12.856 HEAT:-128.2254
 CYCLE:   705 TIME:   0.068 TIME LEFT:  2.00D  GRAD.:    12.686 HEAT:-128.2270
 CYCLE:   706 TIME:   0.068 TIME LEFT:  2.00D  GRAD.:    12.685 HEAT:-128.2273
 CYCLE:   707 TIME:   0.068 TIME LEFT:  2.00D  GRAD.:    12.723 HEAT:-128.2232
 CYCLE:   708 TIME:   0.072 TIME LEFT:  2.00D  GRAD.:    12.838 HEAT:-128.2283
 CYCLE:   709 TIME:   0.176 TIME LEFT:  2.00D  GRAD.:    12.843 HEAT:-128.2226
 CYCLE:   710 TIME:   0.124 TIME LEFT:  2.00D  GRAD.:    20.154 HEAT:-128.2152
 CYCLE:   711 TIME:   0.072 TIME LEFT:  2.00D  GRAD.:    14.174 HEAT:-128.2240
 CYCLE:   712 TIME:   0.064 TIME LEFT:  2.00D  GRAD.:    12.736 HEAT:-128.2295
 CYCLE:   713 TIME:   0.068 TIME LEFT:  2.00D  GRAD.:    12.552 HEAT:-128.2299
 CYCLE:   714 TIME:   0.072 TIME LEFT:  2.00D  GRAD.:    12.586 HEAT:-128.2305
 CYCLE:   715 TIME:   0.068 TIME LEFT:  2.00D  GRAD.:    12.671 HEAT:-128.2302
 CYCLE:   716 TIME:   0.216 TIME LEFT:  2.00D  GRAD.:    16.344 HEAT:-128.2235
 CYCLE:   717 TIME:   0.068 TIME LEFT:  2.00D  GRAD.:    12.844 HEAT:-128.2283
 CYCLE:   718 TIME:   0.064 TIME LEFT:  2.00D  GRAD.:    12.358 HEAT:-128.2314
 CYCLE:   719 TIME:   0.068 TIME LEFT:  2.00D  GRAD.:    12.475 HEAT:-128.2326
 CYCLE:   720 TIME:   0.068 TIME LEFT:  2.00D  GRAD.:    12.506 HEAT:-128.2317
 CYCLE:   721 TIME:   0.072 TIME LEFT:  2.00D  GRAD.:    13.028 HEAT:-128.2320
 CYCLE:   722 TIME:   0.072 TIME LEFT:  2.00D  GRAD.:    13.455 HEAT:-128.2221
 CYCLE:   723 TIME:   0.064 TIME LEFT:  2.00D  GRAD.:    12.553 HEAT:-128.2298
 CYCLE:   724 TIME:   0.072 TIME LEFT:  2.00D  GRAD.:    12.166 HEAT:-128.2313
 CYCLE:   725 TIME:   0.072 TIME LEFT:  2.00D  GRAD.:    13.776 HEAT:-128.2292
 CYCLE:   726 TIME:   0.120 TIME LEFT:  2.00D  GRAD.:    15.357 HEAT:-128.2204
 CYCLE:   727 TIME:   0.068 TIME LEFT:  2.00D  GRAD.:    12.339 HEAT:-128.2328
 CYCLE:   728 TIME:   0.068 TIME LEFT:  2.00D  GRAD.:    12.468 HEAT:-128.2339
 CYCLE:   729 TIME:   0.072 TIME LEFT:  2.00D  GRAD.:    12.434 HEAT:-128.2371
 CYCLE:   730 TIME:   0.124 TIME LEFT:  2.00D  GRAD.:    12.781 HEAT:-128.2311
 CYCLE:   731 TIME:   0.072 TIME LEFT:  2.00D  GRAD.:    13.321 HEAT:-128.2221
 CYCLE:   732 TIME:   0.068 TIME LEFT:  2.00D  GRAD.:    12.400 HEAT:-128.2361
 CYCLE:   733 TIME:   0.124 TIME LEFT:  2.00D  GRAD.:    12.401 HEAT:-128.2361
 CYCLE:   734 TIME:   0.068 TIME LEFT:  2.00D  GRAD.:    12.543 HEAT:-128.2353
 CYCLE:   735 TIME:   0.116 TIME LEFT:  2.00D  GRAD.:    14.943 HEAT:-128.2308
 CYCLE:   736 TIME:   0.068 TIME LEFT:  2.00D  GRAD.:    12.451 HEAT:-128.2384
 CYCLE:   737 TIME:   0.068 TIME LEFT:  2.00D  GRAD.:    12.214 HEAT:-128.2389
 CYCLE:   738 TIME:   0.072 TIME LEFT:  2.00D  GRAD.:    12.331 HEAT:-128.2372
 CYCLE:   739 TIME:   0.068 TIME LEFT:  2.00D  GRAD.:    12.528 HEAT:-128.2372
 CYCLE:   740 TIME:   0.068 TIME LEFT:  2.00D  GRAD.:    12.608 HEAT:-128.2328
 CYCLE:   741 TIME:   0.168 TIME LEFT:  2.00D  GRAD.:    14.329 HEAT:-128.2260
 CYCLE:   742 TIME:   0.068 TIME LEFT:  2.00D  GRAD.:    12.726 HEAT:-128.2346
 CYCLE:   743 TIME:   0.068 TIME LEFT:  2.00D  GRAD.:    12.347 HEAT:-128.2396
 CYCLE:   744 TIME:   0.064 TIME LEFT:  2.00D  GRAD.:    12.152 HEAT:-128.2414
 CYCLE:   745 TIME:   0.068 TIME LEFT:  2.00D  GRAD.:    12.200 HEAT:-128.2421
 CYCLE:   746 TIME:   0.072 TIME LEFT:  2.00D  GRAD.:    12.413 HEAT:-128.2398
 CYCLE:   747 TIME:   0.072 TIME LEFT:  2.00D  GRAD.:    13.101 HEAT:-128.2397
 CYCLE:   748 TIME:   0.072 TIME LEFT:  2.00D  GRAD.:    12.217 HEAT:-128.2472
 CYCLE:   749 TIME:   0.072 TIME LEFT:  2.00D  GRAD.:    12.433 HEAT:-128.2463
 CYCLE:   750 TIME:   0.072 TIME LEFT:  2.00D  GRAD.:    12.156 HEAT:-128.2512
 CYCLE:   751 TIME:   0.124 TIME LEFT:  2.00D  GRAD.:    13.389 HEAT:-128.2475
 CYCLE:   752 TIME:   0.236 TIME LEFT:  2.00D  GRAD.:    13.030 HEAT:-128.2520
 CYCLE:   753 TIME:   0.068 TIME LEFT:  2.00D  GRAD.:    11.867 HEAT:-128.2610
 CYCLE:   754 TIME:   0.068 TIME LEFT:  2.00D  GRAD.:    12.123 HEAT:-128.2639
 CYCLE:   755 TIME:   0.068 TIME LEFT:  2.00D  GRAD.:    12.401 HEAT:-128.2638
 CYCLE:   756 TIME:   0.124 TIME LEFT:  2.00D  GRAD.:    12.614 HEAT:-128.2593
 CYCLE:   757 TIME:   0.072 TIME LEFT:  2.00D  GRAD.:    11.943 HEAT:-128.2667
 CYCLE:   758 TIME:   0.272 TIME LEFT:  2.00D  GRAD.:    18.121 HEAT:-128.2627
 CYCLE:   759 TIME:   0.068 TIME LEFT:  2.00D  GRAD.:    12.941 HEAT:-128.2670
 CYCLE:   760 TIME:   0.068 TIME LEFT:  2.00D  GRAD.:    11.872 HEAT:-128.2685
 CYCLE:   761 TIME:   0.068 TIME LEFT:  2.00D  GRAD.:    11.796 HEAT:-128.2691
 CYCLE:   762 TIME:   0.064 TIME LEFT:  2.00D  GRAD.:    11.863 HEAT:-128.2698
 CYCLE:   763 TIME:   0.072 TIME LEFT:  2.00D  GRAD.:    11.924 HEAT:-128.2673
 CYCLE:   764 TIME:   0.068 TIME LEFT:  2.00D  GRAD.:    16.126 HEAT:-128.2601
 CYCLE:   765 TIME:   0.068 TIME LEFT:  2.00D  GRAD.:    12.326 HEAT:-128.2688
 CYCLE:   766 TIME:   0.116 TIME LEFT:  2.00D  GRAD.:    12.522 HEAT:-128.2713
 CYCLE:   767 TIME:   0.068 TIME LEFT:  2.00D  GRAD.:    12.042 HEAT:-128.2749
 CYCLE:   768 TIME:   0.068 TIME LEFT:  2.00D  GRAD.:    13.013 HEAT:-128.2745
 CYCLE:   769 TIME:   0.068 TIME LEFT:  2.00D  GRAD.:    11.763 HEAT:-128.2735
 CYCLE:   770 TIME:   0.072 TIME LEFT:  2.00D  GRAD.:    12.082 HEAT:-128.2787
 CYCLE:   771 TIME:   0.064 TIME LEFT:  2.00D  GRAD.:    12.180 HEAT:-128.2791
 CYCLE:   772 TIME:   0.072 TIME LEFT:  2.00D  GRAD.:    13.030 HEAT:-128.2869
 CYCLE:   773 TIME:   0.324 TIME LEFT:  2.00D  GRAD.:    22.818 HEAT:-128.2806
 CYCLE:   774 TIME:   0.064 TIME LEFT:  2.00D  GRAD.:    17.051 HEAT:-128.2863
 CYCLE:   775 TIME:   0.064 TIME LEFT:  2.00D  GRAD.:    12.534 HEAT:-128.2907
 CYCLE:   776 TIME:   0.068 TIME LEFT:  2.00D  GRAD.:    11.788 HEAT:-128.2927
 CYCLE:   777 TIME:   0.068 TIME LEFT:  2.00D  GRAD.:    11.946 HEAT:-128.2955
 CYCLE:   778 TIME:   0.068 TIME LEFT:  2.00D  GRAD.:    11.739 HEAT:-128.2931
 CYCLE:   779 TIME:   0.068 TIME LEFT:  2.00D  GRAD.:    14.579 HEAT:-128.2866
 CYCLE:   780 TIME:   0.064 TIME LEFT:  2.00D  GRAD.:    11.678 HEAT:-128.2984
 CYCLE:   781 TIME:   0.068 TIME LEFT:  2.00D  GRAD.:    12.245 HEAT:-128.3020
 CYCLE:   782 TIME:   0.072 TIME LEFT:  2.00D  GRAD.:    12.927 HEAT:-128.3015
 CYCLE:   783 TIME:   0.268 TIME LEFT:  2.00D  GRAD.:    16.914 HEAT:-128.3002
 CYCLE:   784 TIME:   0.068 TIME LEFT:  2.00D  GRAD.:    12.236 HEAT:-128.3039
 CYCLE:   785 TIME:   0.068 TIME LEFT:  2.00D  GRAD.:    11.877 HEAT:-128.3054
 CYCLE:   786 TIME:   0.068 TIME LEFT:  2.00D  GRAD.:    11.861 HEAT:-128.3076
 CYCLE:   787 TIME:   0.068 TIME LEFT:  2.00D  GRAD.:    11.744 HEAT:-128.3101
 CYCLE:   788 TIME:   0.072 TIME LEFT:  2.00D  GRAD.:    11.826 HEAT:-128.3117
 CYCLE:   789 TIME:   0.064 TIME LEFT:  2.00D  GRAD.:    12.532 HEAT:-128.3179
 CYCLE:   790 TIME:   0.072 TIME LEFT:  2.00D  GRAD.:    13.002 HEAT:-128.3159
 CYCLE:   791 TIME:   0.072 TIME LEFT:  2.00D  GRAD.:    12.860 HEAT:-128.3216
 CYCLE:   792 TIME:   0.064 TIME LEFT:  2.00D  GRAD.:    11.908 HEAT:-128.3291
 CYCLE:   793 TIME:   0.072 TIME LEFT:  2.00D  GRAD.:    11.880 HEAT:-128.3364
 CYCLE:   794 TIME:   0.180 TIME LEFT:  2.00D  GRAD.:    12.526 HEAT:-128.3354
 CYCLE:   795 TIME:   0.068 TIME LEFT:  2.00D  GRAD.:    13.539 HEAT:-128.3432
 CYCLE:   796 TIME:   0.124 TIME LEFT:  2.00D  GRAD.:    15.136 HEAT:-128.3448
 CYCLE:   797 TIME:   0.068 TIME LEFT:  2.00D  GRAD.:    11.497 HEAT:-128.3512
 CYCLE:   798 TIME:   0.064 TIME LEFT:  2.00D  GRAD.:    11.584 HEAT:-128.3562
 CYCLE:   799 TIME:   0.072 TIME LEFT:  2.00D  GRAD.:    11.102 HEAT:-128.3694
 CYCLE:   800 TIME:   0.072 TIME LEFT:  2.00D  GRAD.:    11.250 HEAT:-128.3906
 CYCLE:   801 TIME:   0.076 TIME LEFT:  2.00D  GRAD.:    13.546 HEAT:-128.4251
 CYCLE:   802 TIME:   0.068 TIME LEFT:  2.00D  GRAD.:    13.645 HEAT:-128.4742
 CYCLE:   803 TIME:   0.076 TIME LEFT:  2.00D  GRAD.:    13.881 HEAT:-128.5138
 CYCLE:   804 TIME:   0.072 TIME LEFT:  2.00D  GRAD.:    12.222 HEAT:-128.6114
 CYCLE:   805 TIME:   0.076 TIME LEFT:  2.00D  GRAD.:    12.087 HEAT:-128.7128
 CYCLE:   806 TIME:   0.068 TIME LEFT:  2.00D  GRAD.:    14.951 HEAT:-128.9341
 CYCLE:   807 TIME:   0.076 TIME LEFT:  2.00D  GRAD.:    17.151 HEAT:-129.1393
 CYCLE:   808 TIME:   0.312 TIME LEFT:  2.00D  GRAD.:    24.133 HEAT:-129.1602
 CYCLE:   809 TIME:   0.072 TIME LEFT:  2.00D  GRAD.:    11.187 HEAT:-129.2519
 CYCLE:   810 TIME:   0.072 TIME LEFT:  2.00D  GRAD.:    10.756 HEAT:-129.3209
 CYCLE:   811 TIME:   0.072 TIME LEFT:  2.00D  GRAD.:    11.737 HEAT:-129.5100
 CYCLE:   812 TIME:   0.076 TIME LEFT:  2.00D  GRAD.:    11.206 HEAT:-129.6734
 CYCLE:   813 TIME:   0.080 TIME LEFT:  2.00D  GRAD.:    13.616 HEAT:-129.8476
 CYCLE:   814 TIME:   0.072 TIME LEFT:  2.00D  GRAD.:    15.770 HEAT:-129.8756
 CYCLE:   815 TIME:   0.132 TIME LEFT:  2.00D  GRAD.:    14.216 HEAT:-130.0070
 CYCLE:   816 TIME:   0.076 TIME LEFT:  2.00D  GRAD.:    12.158 HEAT:-130.0503
 CYCLE:   817 TIME:   0.072 TIME LEFT:  2.00D  GRAD.:    11.281 HEAT:-130.1054
 CYCLE:   818 TIME:   0.128 TIME LEFT:  2.00D  GRAD.:    13.801 HEAT:-130.1078
 CYCLE:   819 TIME:   0.072 TIME LEFT:  2.00D  GRAD.:     9.611 HEAT:-130.1759
 CYCLE:   820 TIME:   0.072 TIME LEFT:  2.00D  GRAD.:    11.159 HEAT:-130.1790
 CYCLE:   821 TIME:   0.068 TIME LEFT:  2.00D  GRAD.:     9.063 HEAT:-130.2126
 CYCLE:   822 TIME:   0.072 TIME LEFT:  2.00D  GRAD.:     8.498 HEAT:-130.2200
 CYCLE:   823 TIME:   0.124 TIME LEFT:  2.00D  GRAD.:     9.237 HEAT:-130.2309
 CYCLE:   824 TIME:   0.128 TIME LEFT:  2.00D  GRAD.:     8.458 HEAT:-130.2494
 CYCLE:   825 TIME:   0.076 TIME LEFT:  2.00D  GRAD.:     8.164 HEAT:-130.2710
 CYCLE:   826 TIME:   0.068 TIME LEFT:  2.00D  GRAD.:     7.967 HEAT:-130.2763
 CYCLE:   827 TIME:   0.284 TIME LEFT:  2.00D  GRAD.:     8.009 HEAT:-130.2780
 CYCLE:   828 TIME:   0.064 TIME LEFT:  2.00D  GRAD.:     7.845 HEAT:-130.2808
 CYCLE:   829 TIME:   0.068 TIME LEFT:  2.00D  GRAD.:     9.283 HEAT:-130.2802
 CYCLE:   830 TIME:   0.072 TIME LEFT:  2.00D  GRAD.:     8.514 HEAT:-130.2819
 CYCLE:   831 TIME:   0.068 TIME LEFT:  2.00D  GRAD.:     8.691 HEAT:-130.2853
 CYCLE:   832 TIME:   0.072 TIME LEFT:  2.00D  GRAD.:     8.811 HEAT:-130.2886
 CYCLE:   833 TIME:   0.176 TIME LEFT:  2.00D  GRAD.:     8.812 HEAT:-130.2897
 CYCLE:   834 TIME:   0.212 TIME LEFT:  2.00D  GRAD.:    11.146 HEAT:-130.2891
 CYCLE:   835 TIME:   0.068 TIME LEFT:  2.00D  GRAD.:     8.345 HEAT:-130.2910
 CYCLE:   836 TIME:   0.068 TIME LEFT:  2.00D  GRAD.:     8.156 HEAT:-130.2923
 CYCLE:   837 TIME:   0.068 TIME LEFT:  2.00D  GRAD.:     8.211 HEAT:-130.2937
 CYCLE:   838 TIME:   0.068 TIME LEFT:  2.00D  GRAD.:     8.305 HEAT:-130.2893
 CYCLE:   839 TIME:   0.068 TIME LEFT:  2.00D  GRAD.:     9.426 HEAT:-130.2939
 CYCLE:   840 TIME:   0.068 TIME LEFT:  2.00D  GRAD.:     9.160 HEAT:-130.2973
 CYCLE:   841 TIME:   0.072 TIME LEFT:  2.00D  GRAD.:    10.720 HEAT:-130.2984
 CYCLE:   842 TIME:   0.068 TIME LEFT:  2.00D  GRAD.:     9.083 HEAT:-130.3013
 CYCLE:   843 TIME:   0.072 TIME LEFT:  2.00D  GRAD.:    17.302 HEAT:-130.2963
 CYCLE:   844 TIME:   0.068 TIME LEFT:  2.00D  GRAD.:    12.704 HEAT:-130.3030
 CYCLE:   845 TIME:   0.176 TIME LEFT:  2.00D  GRAD.:    16.436 HEAT:-130.2984
 CYCLE:   846 TIME:   0.064 TIME LEFT:  2.00D  GRAD.:     8.341 HEAT:-130.3083
 CYCLE:   847 TIME:   0.072 TIME LEFT:  2.00D  GRAD.:     8.901 HEAT:-130.3101
 CYCLE:   848 TIME:   0.120 TIME LEFT:  2.00D  GRAD.:     8.775 HEAT:-130.3092
 CYCLE:   849 TIME:   0.068 TIME LEFT:  2.00D  GRAD.:     9.456 HEAT:-130.3122
 CYCLE:   850 TIME:   0.068 TIME LEFT:  2.00D  GRAD.:     9.576 HEAT:-130.3115
 CYCLE:   851 TIME:   0.072 TIME LEFT:  2.00D  GRAD.:     8.646 HEAT:-130.3157
 CYCLE:   852 TIME:   0.068 TIME LEFT:  2.00D  GRAD.:     9.011 HEAT:-130.3172
 CYCLE:   853 TIME:   0.072 TIME LEFT:  2.00D  GRAD.:     8.324 HEAT:-130.3209
 CYCLE:   854 TIME:   0.168 TIME LEFT:  2.00D  GRAD.:    12.672 HEAT:-130.3187
 CYCLE:   855 TIME:   0.068 TIME LEFT:  2.00D  GRAD.:     8.471 HEAT:-130.3246
 CYCLE:   856 TIME:   0.064 TIME LEFT:  2.00D  GRAD.:     8.500 HEAT:-130.3256
 CYCLE:   857 TIME:   0.068 TIME LEFT:  2.00D  GRAD.:     8.349 HEAT:-130.3276
 CYCLE:   858 TIME:   0.072 TIME LEFT:  2.00D  GRAD.:     8.428 HEAT:-130.3278
 CYCLE:   859 TIME:   0.124 TIME LEFT:  2.00D  GRAD.:     8.714 HEAT:-130.3247
 CYCLE:   860 TIME:   0.072 TIME LEFT:  2.00D  GRAD.:     9.529 HEAT:-130.3214
 CYCLE:   861 TIME:   0.068 TIME LEFT:  2.00D  GRAD.:     8.326 HEAT:-130.3324
 CYCLE:   862 TIME:   0.124 TIME LEFT:  2.00D  GRAD.:    10.007 HEAT:-130.3283
 CYCLE:   863 TIME:   0.072 TIME LEFT:  2.00D  GRAD.:     8.657 HEAT:-130.3338
 CYCLE:   864 TIME:   0.068 TIME LEFT:  2.00D  GRAD.:     8.916 HEAT:-130.3344
 CYCLE:   865 TIME:   0.128 TIME LEFT:  2.00D  GRAD.:     9.319 HEAT:-130.3280
 CYCLE:   866 TIME:   0.068 TIME LEFT:  2.00D  GRAD.:     8.560 HEAT:-130.3334
 CYCLE:   867 TIME:   0.072 TIME LEFT:  2.00D  GRAD.:     8.249 HEAT:-130.3345
 CYCLE:   868 TIME:   0.072 TIME LEFT:  2.00D  GRAD.:     8.570 HEAT:-130.3257
 CYCLE:   869 TIME:   0.068 TIME LEFT:  2.00D  GRAD.:     8.827 HEAT:-130.3305
 CYCLE:   870 TIME:   0.072 TIME LEFT:  2.00D  GRAD.:     9.182 HEAT:-130.3326
 CYCLE:   871 TIME:   0.064 TIME LEFT:  2.00D  GRAD.:     8.419 HEAT:-130.3362
 CYCLE:   872 TIME:   0.072 TIME LEFT:  2.00D  GRAD.:     8.294 HEAT:-130.3362
 CYCLE:   873 TIME:   0.068 TIME LEFT:  2.00D  GRAD.:     8.504 HEAT:-130.3382
 CYCLE:   874 TIME:   0.228 TIME LEFT:  2.00D  GRAD.:     9.065 HEAT:-130.3352
 CYCLE:   875 TIME:   0.072 TIME LEFT:  2.00D  GRAD.:    10.019 HEAT:-130.3355
 CYCLE:   876 TIME:   0.068 TIME LEFT:  2.00D  GRAD.:     8.117 HEAT:-130.3377
 CYCLE:   877 TIME:   0.068 TIME LEFT:  2.00D  GRAD.:     8.515 HEAT:-130.3389
 CYCLE:   878 TIME:   0.064 TIME LEFT:  2.00D  GRAD.:     8.552 HEAT:-130.3403
 NUMERICAL PROBLEMS IN BRACKETING LAMDA  -59986.9230302595     
  -59986923.0302595       -59986.9230303195        53747078.1261552     
   36613.2284883271     
  GOING FOR FIXED STEP SIZE....
 NUMERICAL PROBLEMS IN BRACKETING LAMDA  -59986.9230302595     
  -59986923.0302595       -59986.9230303195        53747078.1261552     
   36613.2284883271     
  GOING FOR FIXED STEP SIZE....
 NUMERICAL PROBLEMS IN BRACKETING LAMDA  -59986.9230302595     
  -59986923.0302595       -59986.9230303195        53747078.1261552     
   36613.2284883271     
  GOING FOR FIXED STEP SIZE....
 NUMERICAL PROBLEMS IN BRACKETING LAMDA  -59986.9230302595     
  -59986923.0302595       -59986.9230303195        53747078.1261552     
   36613.2284883271     
  GOING FOR FIXED STEP SIZE....
 NUMERICAL PROBLEMS IN BRACKETING LAMDA  -59986.9230302595     
  -59986923.0302595       -59986.9230303195        53747078.1261552     
   36613.2284883271     
  GOING FOR FIXED STEP SIZE....
 CYCLE:   879 TIME:   0.268 TIME LEFT:  2.00D  GRAD.:    18.195 HEAT:-130.3337
 CYCLE:   880 TIME:   0.068 TIME LEFT:  2.00D  GRAD.:    11.214 HEAT:-130.3387
 CYCLE:   881 TIME:   0.068 TIME LEFT:  2.00D  GRAD.:     9.175 HEAT:-130.3400
 CYCLE:   882 TIME:   0.064 TIME LEFT:  2.00D  GRAD.:     8.324 HEAT:-130.3405
 CYCLE:   883 TIME:   0.064 TIME LEFT:  2.00D  GRAD.:     8.393 HEAT:-130.3409
 CYCLE:   884 TIME:   0.072 TIME LEFT:  2.00D  GRAD.:     9.572 HEAT:-130.3404
 CYCLE:   885 TIME:   0.068 TIME LEFT:  2.00D  GRAD.:    10.032 HEAT:-130.3404
 CYCLE:   886 TIME:   0.068 TIME LEFT:  2.00D  GRAD.:     8.977 HEAT:-130.3404
 CYCLE:   887 TIME:   0.072 TIME LEFT:  2.00D  GRAD.:     8.801 HEAT:-130.3395
 CYCLE:   888 TIME:   0.068 TIME LEFT:  2.00D  GRAD.:    11.213 HEAT:-130.3382
 CYCLE:   889 TIME:   0.072 TIME LEFT:  2.00D  GRAD.:     8.841 HEAT:-130.3417
 CYCLE:   890 TIME:   0.068 TIME LEFT:  2.00D  GRAD.:    10.417 HEAT:-130.3405
 CYCLE:   891 TIME:   0.072 TIME LEFT:  2.00D  GRAD.:     8.446 HEAT:-130.3432
 CYCLE:   892 TIME:   0.068 TIME LEFT:  2.00D  GRAD.:    11.194 HEAT:-130.3404
[...]
 CYCLE:  1799 TIME:   0.068 TIME LEFT:  2.00D  GRAD.:     9.276 HEAT:-130.4970
 CYCLE:  1800 TIME:   0.068 TIME LEFT:  2.00D  GRAD.:     8.796 HEAT:-130.4985
 CYCLE:  1801 TIME:   0.068 TIME LEFT:  2.00D  GRAD.:     8.747 HEAT:-130.4987
 CYCLE:  1802 TIME:   0.068 TIME LEFT:  2.00D  GRAD.:     8.762 HEAT:-130.4984
 CYCLE:  1803 TIME:   0.068 TIME LEFT:  2.00D  GRAD.:    10.706 HEAT:-130.4958
 CYCLE:  1804 TIME:   0.068 TIME LEFT:  2.00D  GRAD.:     8.716 HEAT:-130.4979
 CYCLE:  1805 TIME:   0.064 TIME LEFT:  2.00D  GRAD.:     8.689 HEAT:-130.4987
 CYCLE:  1806 TIME:   0.068 TIME LEFT:  2.00D  GRAD.:     8.746 HEAT:-130.4985
 CYCLE:  1807 TIME:   0.068 TIME LEFT:  2.00D  GRAD.:     8.628 HEAT:-130.4987
 CYCLE:  1808 TIME:   0.068 TIME LEFT:  2.00D  GRAD.:     8.511 HEAT:-130.4976
 CYCLE:  1809 TIME:   0.072 TIME LEFT:  2.00D  GRAD.:     9.250 HEAT:-130.4942
 CYCLE:  1810 TIME:   0.064 TIME LEFT:  2.00D  GRAD.:     8.748 HEAT:-130.4982
 CYCLE:  1811 TIME:   0.068 TIME LEFT:  2.00D  GRAD.:     8.695 HEAT:-130.4974
 CYCLE:  1812 TIME:   0.068 TIME LEFT:  2.00D  GRAD.:     8.730 HEAT:-130.4973
 CYCLE:  1813 TIME:   0.068 TIME LEFT:  2.00D  GRAD.:     8.949 HEAT:-130.4963
 CYCLE:  1814 TIME:   0.168 TIME LEFT:  2.00D  GRAD.:    10.018 HEAT:-130.4936
 CYCLE:  1815 TIME:   0.068 TIME LEFT:  2.00D  GRAD.:     8.790 HEAT:-130.4969
 CYCLE:  1816 TIME:   0.068 TIME LEFT:  2.00D  GRAD.:     8.719 HEAT:-130.4983
 CYCLE:  1817 TIME:   0.064 TIME LEFT:  2.00D  GRAD.:     8.605 HEAT:-130.4984
 CYCLE:  1818 TIME:   0.064 TIME LEFT:  2.00D  GRAD.:     9.244 HEAT:-130.4972
 CYCLE:  1819 TIME:   0.068 TIME LEFT:  2.00D  GRAD.:     8.701 HEAT:-130.4985
 CYCLE:  1820 TIME:   0.068 TIME LEFT:  2.00D  GRAD.:     8.566 HEAT:-130.4984
 CYCLE:  1821 TIME:   0.068 TIME LEFT:  2.00D  GRAD.:     8.866 HEAT:-130.4982
 CYCLE:  1822 TIME:   0.068 TIME LEFT:  2.00D  GRAD.:     8.612 HEAT:-130.4974
 CYCLE:  1823 TIME:   0.072 TIME LEFT:  2.00D  GRAD.:    11.643 HEAT:-130.4892
 CYCLE:  1824 TIME:   0.068 TIME LEFT:  2.00D  GRAD.:     9.053 HEAT:-130.4973
 CYCLE:  1825 TIME:   0.064 TIME LEFT:  2.00D  GRAD.:     8.869 HEAT:-130.4980
 CYCLE:  1826 TIME:   0.068 TIME LEFT:  2.00D  GRAD.:     8.575 HEAT:-130.4983
 CYCLE:  1827 TIME:   0.068 TIME LEFT:  2.00D  GRAD.:     8.749 HEAT:-130.4983
 CYCLE:  1828 TIME:   0.068 TIME LEFT:  2.00D  GRAD.:     8.839 HEAT:-130.4982
 CYCLE:  1829 TIME:   0.068 TIME LEFT:  2.00D  GRAD.:     9.423 HEAT:-130.4959
 CYCLE:  1830 TIME:   0.064 TIME LEFT:  2.00D  GRAD.:     8.682 HEAT:-130.4984
 CYCLE:  1831 TIME:   0.068 TIME LEFT:  2.00D  GRAD.:     8.845 HEAT:-130.4969
 CYCLE:  1832 TIME:   0.072 TIME LEFT:  2.00D  GRAD.:     9.011 HEAT:-130.4967
 CYCLE:  1833 TIME:   0.064 TIME LEFT:  2.00D  GRAD.:     8.586 HEAT:-130.4985
 CYCLE:  1834 TIME:   0.068 TIME LEFT:  2.00D  GRAD.:     8.717 HEAT:-130.4982
 CYCLE:  1835 TIME:   0.064 TIME LEFT:  2.00D  GRAD.:     8.661 HEAT:-130.4984
 CYCLE:  1836 TIME:   0.068 TIME LEFT:  2.00D  GRAD.:     8.652 HEAT:-130.4984
 CYCLE:  1837 TIME:   0.068 TIME LEFT:  2.00D  GRAD.:     8.625 HEAT:-130.4983
 CYCLE:  1838 TIME:   0.068 TIME LEFT:  2.00D  GRAD.:     9.088 HEAT:-130.4961
 CYCLE:  1839 TIME:   0.168 TIME LEFT:  2.00D  GRAD.:    19.694 HEAT:-130.4881
 CYCLE:  1840 TIME:   0.068 TIME LEFT:  2.00D  GRAD.:    14.757 HEAT:-130.4927
 CYCLE:  1841 TIME:   0.064 TIME LEFT:  2.00D  GRAD.:     8.815 HEAT:-130.4969
 CYCLE:  1842 TIME:   0.068 TIME LEFT:  2.00D  GRAD.:     8.638 HEAT:-130.4977
 CYCLE:  1843 TIME:   0.068 TIME LEFT:  2.00D  GRAD.:     8.517 HEAT:-130.4981
 CYCLE:  1844 TIME:   0.068 TIME LEFT:  2.00D  GRAD.:     8.598 HEAT:-130.4983
 CYCLE:  1845 TIME:   0.064 TIME LEFT:  2.00D  GRAD.:     8.801 HEAT:-130.4982
 CYCLE:  1846 TIME:   0.068 TIME LEFT:  2.00D  GRAD.:     9.238 HEAT:-130.4961
 CYCLE:  1847 TIME:   0.064 TIME LEFT:  2.00D  GRAD.:     8.486 HEAT:-130.4981
 CYCLE:  1848 TIME:   0.068 TIME LEFT:  2.00D  GRAD.:     8.678 HEAT:-130.4983
 CYCLE:  1849 TIME:   0.064 TIME LEFT:  2.00D  GRAD.:     8.774 HEAT:-130.4981
 CYCLE:  1850 TIME:   0.064 TIME LEFT:  2.00D  GRAD.:     8.613 HEAT:-130.4979
 CYCLE:  1851 TIME:   0.068 TIME LEFT:  2.00D  GRAD.:     9.198 HEAT:-130.4944
 CYCLE:  1852 TIME:   0.064 TIME LEFT:  2.00D  GRAD.:     8.454 HEAT:-130.4973
 CYCLE:  1853 TIME:   0.068 TIME LEFT:  2.00D  GRAD.:     8.620 HEAT:-130.4983
 CYCLE:  1854 TIME:   0.068 TIME LEFT:  2.00D  GRAD.:     9.189 HEAT:-130.4942
 CYCLE:  1855 TIME:   0.072 TIME LEFT:  2.00D  GRAD.:     8.272 HEAT:-130.4947
 CYCLE:  1856 TIME:   0.124 TIME LEFT:  2.00D  GRAD.:     9.664 HEAT:-130.4913
 CYCLE:  1857 TIME:   0.224 TIME LEFT:  2.00D  GRAD.:    11.736 HEAT:-130.4900
 CYCLE:  1858 TIME:   0.068 TIME LEFT:  2.00D  GRAD.:     9.129 HEAT:-130.4945
 CYCLE:  1859 TIME:   0.068 TIME LEFT:  2.00D  GRAD.:     9.089 HEAT:-130.4970
 CYCLE:  1860 TIME:   0.064 TIME LEFT:  2.00D  GRAD.:     8.917 HEAT:-130.4981
 CYCLE:  1861 TIME:   0.068 TIME LEFT:  2.00D  GRAD.:     8.511 HEAT:-130.4979
 CYCLE:  1862 TIME:   0.064 TIME LEFT:  2.00D  GRAD.:     8.754 HEAT:-130.4976
 CYCLE:  1863 TIME:   0.072 TIME LEFT:  2.00D  GRAD.:     9.062 HEAT:-130.4943
 CYCLE:  1864 TIME:   0.268 TIME LEFT:  2.00D  GRAD.:     9.998 HEAT:-130.4920
 CYCLE:  1865 TIME:   0.068 TIME LEFT:  2.00D  GRAD.:     9.471 HEAT:-130.4938
 CYCLE:  1866 TIME:   0.064 TIME LEFT:  2.00D  GRAD.:     9.062 HEAT:-130.4958
 CYCLE:  1867 TIME:   0.068 TIME LEFT:  2.00D  GRAD.:     8.937 HEAT:-130.4962
 CYCLE:  1868 TIME:   0.068 TIME LEFT:  2.00D  GRAD.:     8.772 HEAT:-130.4966
 CYCLE:  1869 TIME:   0.064 TIME LEFT:  2.00D  GRAD.:     8.820 HEAT:-130.4965
 CYCLE:  1870 TIME:   0.216 TIME LEFT:  2.00D  GRAD.:     9.506 HEAT:-130.4942
 CYCLE:  1871 TIME:   0.064 TIME LEFT:  2.00D  GRAD.:     8.681 HEAT:-130.4956
 CYCLE:  1872 TIME:   0.068 TIME LEFT:  2.00D  GRAD.:     8.615 HEAT:-130.4973
 CYCLE:  1873 TIME:   0.068 TIME LEFT:  2.00D  GRAD.:     8.710 HEAT:-130.4974
 CYCLE:  1874 TIME:   0.064 TIME LEFT:  2.00D  GRAD.:     8.749 HEAT:-130.4973
 CYCLE:  1875 TIME:   0.068 TIME LEFT:  2.00D  GRAD.:     9.649 HEAT:-130.4920
 CYCLE:  1876 TIME:   0.064 TIME LEFT:  2.00D  GRAD.:     8.718 HEAT:-130.4970
 CYCLE:  1877 TIME:   0.068 TIME LEFT:  2.00D  GRAD.:     8.670 HEAT:-130.4970
 CYCLE:  1878 TIME:   0.064 TIME LEFT:  2.00D  GRAD.:     8.751 HEAT:-130.4966
 CYCLE:  1879 TIME:   0.064 TIME LEFT:  2.00D  GRAD.:     9.174 HEAT:-130.4947
 CYCLE:  1880 TIME:   0.068 TIME LEFT:  2.00D  GRAD.:     8.494 HEAT:-130.4971
 CYCLE:  1881 TIME:   0.068 TIME LEFT:  2.00D  GRAD.:     8.620 HEAT:-130.4973
 CYCLE:  1882 TIME:   0.064 TIME LEFT:  2.00D  GRAD.:     8.671 HEAT:-130.4972
 CYCLE:  1883 TIME:   0.068 TIME LEFT:  2.00D  GRAD.:     8.774 HEAT:-130.4965
 CYCLE:  1884 TIME:   0.068 TIME LEFT:  2.00D  GRAD.:     8.447 HEAT:-130.4944
 CYCLE:  1885 TIME:   0.212 TIME LEFT:  2.00D  GRAD.:    10.337 HEAT:-130.4908
 CYCLE:  1886 TIME:   0.068 TIME LEFT:  2.00D  GRAD.:     9.505 HEAT:-130.4942
 CYCLE:  1887 TIME:   0.064 TIME LEFT:  2.00D  GRAD.:     8.698 HEAT:-130.4968
 CYCLE:  1888 TIME:   0.068 TIME LEFT:  2.00D  GRAD.:     8.626 HEAT:-130.4971
 CYCLE:  1889 TIME:   0.064 TIME LEFT:  2.00D  GRAD.:     9.362 HEAT:-130.4964
 CYCLE:  1890 TIME:   0.068 TIME LEFT:  2.00D  GRAD.:     8.691 HEAT:-130.4978
 CYCLE:  1891 TIME:   0.064 TIME LEFT:  2.00D  GRAD.:     8.621 HEAT:-130.4977
 CYCLE:  1892 TIME:   0.068 TIME LEFT:  2.00D  GRAD.:     8.591 HEAT:-130.4975
 CYCLE:  1893 TIME:   0.060 TIME LEFT:  2.00D  GRAD.:     8.660 HEAT:-130.4976
 CYCLE:  1894 TIME:   0.072 TIME LEFT:  2.00D  GRAD.:     9.636 HEAT:-130.4958
 CYCLE:  1895 TIME:   0.220 TIME LEFT:  2.00D  GRAD.:    18.885 HEAT:-130.4881
 CYCLE:  1896 TIME:   0.064 TIME LEFT:  2.00D  GRAD.:    10.883 HEAT:-130.4944
 CYCLE:  1897 TIME:   0.064 TIME LEFT:  2.00D  GRAD.:     9.045 HEAT:-130.4965
 CYCLE:  1898 TIME:   0.068 TIME LEFT:  2.00D  GRAD.:     8.959 HEAT:-130.4971
 CYCLE:  1899 TIME:   0.064 TIME LEFT:  2.00D  GRAD.:     8.672 HEAT:-130.4976
 CYCLE:  1900 TIME:   0.064 TIME LEFT:  2.00D  GRAD.:     8.376 HEAT:-130.4968
 CYCLE:  1901 TIME:   0.068 TIME LEFT:  2.00D  GRAD.:     9.053 HEAT:-130.4945
 CYCLE:  1902 TIME:   0.116 TIME LEFT:  2.00D  GRAD.:     9.937 HEAT:-130.4901
 CYCLE:  1903 TIME:   0.064 TIME LEFT:  2.00D  GRAD.:     8.771 HEAT:-130.4959
 CYCLE:  1904 TIME:   0.068 TIME LEFT:  2.00D  GRAD.:     9.049 HEAT:-130.4927
 CYCLE:  1905 TIME:   0.064 TIME LEFT:  2.00D  GRAD.:     8.624 HEAT:-130.4967
 CYCLE:  1906 TIME:   0.072 TIME LEFT:  2.00D  GRAD.:     9.269 HEAT:-130.4945
 CYCLE:  1907 TIME:   0.064 TIME LEFT:  2.00D  GRAD.:     8.758 HEAT:-130.4975
 CYCLE:  1908 TIME:   0.120 TIME LEFT:  2.00D  GRAD.:    10.098 HEAT:-130.4886
 CYCLE:  1909 TIME:   0.072 TIME LEFT:  2.00D  GRAD.:     8.665 HEAT:-130.4970
 CYCLE:  1910 TIME:   0.064 TIME LEFT:  2.00D  GRAD.:     8.652 HEAT:-130.4975
 CYCLE:  1911 TIME:   0.068 TIME LEFT:  2.00D  GRAD.:     9.167 HEAT:-130.4960
 CYCLE:  1912 TIME:   0.068 TIME LEFT:  2.00D  GRAD.:     9.203 HEAT:-130.4967
 CYCLE:  1913 TIME:   0.220 TIME LEFT:  2.00D  GRAD.:     9.882 HEAT:-130.4950
 CYCLE:  1914 TIME:   0.068 TIME LEFT:  2.00D  GRAD.:     8.862 HEAT:-130.4973
 CYCLE:  1915 TIME:   0.064 TIME LEFT:  2.00D  GRAD.:     8.728 HEAT:-130.4979
 CYCLE:  1916 TIME:   0.068 TIME LEFT:  2.00D  GRAD.:     8.589 HEAT:-130.4975
 CYCLE:  1917 TIME:   0.064 TIME LEFT:  2.00D  GRAD.:     8.739 HEAT:-130.4959
 CYCLE:  1918 TIME:   0.116 TIME LEFT:  2.00D  GRAD.:    11.886 HEAT:-130.4881
 CYCLE:  1919 TIME:   0.068 TIME LEFT:  2.00D  GRAD.:     9.055 HEAT:-130.4946
 CYCLE:  1920 TIME:   0.064 TIME LEFT:  2.00D  GRAD.:     8.550 HEAT:-130.4977
 CYCLE:  1921 TIME:   0.068 TIME LEFT:  2.00D  GRAD.:     8.699 HEAT:-130.4972
 CYCLE:  1922 TIME:   0.064 TIME LEFT:  2.00D  GRAD.:     8.842 HEAT:-130.4959
 CYCLE:  1923 TIME:   0.068 TIME LEFT:  2.00D  GRAD.:     9.366 HEAT:-130.4934
 CYCLE:  1924 TIME:   0.068 TIME LEFT:  2.00D  GRAD.:     8.720 HEAT:-130.4979
 CYCLE:  1925 TIME:   0.064 TIME LEFT:  2.00D  GRAD.:     8.965 HEAT:-130.4906
 CYCLE:  1926 TIME:   0.068 TIME LEFT:  2.00D  GRAD.:     9.054 HEAT:-130.4951
 CYCLE:  1927 TIME:   0.064 TIME LEFT:  2.00D  GRAD.:     9.120 HEAT:-130.4965
 CYCLE:  1928 TIME:   0.120 TIME LEFT:  2.00D  GRAD.:    10.116 HEAT:-130.4888
 CYCLE:  1929 TIME:   0.064 TIME LEFT:  2.00D  GRAD.:     8.686 HEAT:-130.4982
 CYCLE:  1930 TIME:   0.064 TIME LEFT:  2.00D  GRAD.:     8.603 HEAT:-130.4985
 CYCLE:  1931 TIME:   0.068 TIME LEFT:  2.00D  GRAD.:     8.553 HEAT:-130.4985
 CYCLE:  1932 TIME:   0.064 TIME LEFT:  2.00D  GRAD.:     8.487 HEAT:-130.4973
 CYCLE:  1933 TIME:   0.072 TIME LEFT:  2.00D  GRAD.:     8.698 HEAT:-130.4965
 CYCLE:  1934 TIME:   0.068 TIME LEFT:  2.00D  GRAD.:     8.777 HEAT:-130.4923
 CYCLE:  1935 TIME:   0.272 TIME LEFT:  2.00D  GRAD.:    10.096 HEAT:-130.4906
 CYCLE:  1936 TIME:   0.064 TIME LEFT:  2.00D  GRAD.:     8.995 HEAT:-130.4933
 CYCLE:  1937 TIME:   0.064 TIME LEFT:  2.00D  GRAD.:     8.537 HEAT:-130.4956
 CYCLE:  1938 TIME:   0.068 TIME LEFT:  2.00D  GRAD.:     8.627 HEAT:-130.4963
 CYCLE:  1939 TIME:   0.064 TIME LEFT:  2.00D  GRAD.:     8.678 HEAT:-130.4963
 CYCLE:  1940 TIME:   0.068 TIME LEFT:  2.00D  GRAD.:    10.430 HEAT:-130.4940
 CYCLE:  1941 TIME:   0.068 TIME LEFT:  2.00D  GRAD.:     8.603 HEAT:-130.4970
 CYCLE:  1942 TIME:   0.064 TIME LEFT:  2.00D  GRAD.:     8.555 HEAT:-130.4975
 CYCLE:  1943 TIME:   0.068 TIME LEFT:  2.00D  GRAD.:     8.551 HEAT:-130.4953
 CYCLE:  1944 TIME:   0.064 TIME LEFT:  2.00D  GRAD.:     8.776 HEAT:-130.4968
 CYCLE:  1945 TIME:   0.176 TIME LEFT:  2.00D  GRAD.:     9.368 HEAT:-130.4913
 CYCLE:  1946 TIME:   0.116 TIME LEFT:  2.00D  GRAD.:    11.879 HEAT:-130.4902
 CYCLE:  1947 TIME:   0.068 TIME LEFT:  2.00D  GRAD.:     8.895 HEAT:-130.4958
 CYCLE:  1948 TIME:   0.064 TIME LEFT:  2.00D  GRAD.:     8.705 HEAT:-130.4972
 CYCLE:  1949 TIME:   0.064 TIME LEFT:  2.00D  GRAD.:     8.740 HEAT:-130.4976
 CYCLE:  1950 TIME:   0.068 TIME LEFT:  2.00D  GRAD.:     8.783 HEAT:-130.4965
 CYCLE:  1951 TIME:   0.064 TIME LEFT:  2.00D  GRAD.:    10.107 HEAT:-130.4921
 CYCLE:  1952 TIME:   0.068 TIME LEFT:  2.00D  GRAD.:     8.440 HEAT:-130.4964
 CYCLE:  1953 TIME:   0.064 TIME LEFT:  2.00D  GRAD.:     8.629 HEAT:-130.4966
 CYCLE:  1954 TIME:   0.068 TIME LEFT:  2.00D  GRAD.:     9.079 HEAT:-130.4965
 CYCLE:  1955 TIME:   0.060 TIME LEFT:  2.00D  GRAD.:     8.605 HEAT:-130.4966
 CYCLE:  1956 TIME:   0.064 TIME LEFT:  2.00D  GRAD.:     8.703 HEAT:-130.4955
 CYCLE:  1957 TIME:   0.072 TIME LEFT:  2.00D  GRAD.:     9.477 HEAT:-130.4864
 CYCLE:  1958 TIME:   0.064 TIME LEFT:  2.00D  GRAD.:     8.749 HEAT:-130.4948
 CYCLE:  1959 TIME:   0.068 TIME LEFT:  2.00D  GRAD.:     8.643 HEAT:-130.4940
 CYCLE:  1960 TIME:   0.068 TIME LEFT:  2.00D  GRAD.:     8.589 HEAT:-130.4964
 CYCLE:  1961 TIME:   0.068 TIME LEFT:  2.00D  GRAD.:     9.508 HEAT:-130.4912
 CYCLE:  1962 TIME:   0.172 TIME LEFT:  2.00D  GRAD.:    11.116 HEAT:-130.4845
 CYCLE:  1963 TIME:   0.068 TIME LEFT:  2.00D  GRAD.:     8.992 HEAT:-130.4940
 CYCLE:  1964 TIME:   0.068 TIME LEFT:  2.00D  GRAD.:     8.936 HEAT:-130.4966
 CYCLE:  1965 TIME:   0.068 TIME LEFT:  2.00D  GRAD.:     8.495 HEAT:-130.4965
 CYCLE:  1966 TIME:   0.064 TIME LEFT:  2.00D  GRAD.:     8.936 HEAT:-130.4958
 CYCLE:  1967 TIME:   0.212 TIME LEFT:  2.00D  GRAD.:     9.547 HEAT:-130.4937
 CYCLE:  1968 TIME:   0.068 TIME LEFT:  2.00D  GRAD.:     8.904 HEAT:-130.4958
 CYCLE:  1969 TIME:   0.068 TIME LEFT:  2.00D  GRAD.:     8.687 HEAT:-130.4971
 CYCLE:  1970 TIME:   0.064 TIME LEFT:  2.00D  GRAD.:     8.572 HEAT:-130.4975
 CYCLE:  1971 TIME:   0.064 TIME LEFT:  2.00D  GRAD.:     8.611 HEAT:-130.4976
 CYCLE:  1972 TIME:   0.064 TIME LEFT:  2.00D  GRAD.:     8.650 HEAT:-130.4975
 CYCLE:  1973 TIME:   0.068 TIME LEFT:  2.00D  GRAD.:     8.627 HEAT:-130.4974
 CYCLE:  1974 TIME:   0.068 TIME LEFT:  2.00D  GRAD.:     8.915 HEAT:-130.4969
 CYCLE:  1975 TIME:   0.068 TIME LEFT:  2.00D  GRAD.:    12.411 HEAT:-130.4870
 CYCLE:  1976 TIME:   0.068 TIME LEFT:  2.00D  GRAD.:     8.832 HEAT:-130.4950
 CYCLE:  1977 TIME:   0.064 TIME LEFT:  2.00D  GRAD.:     8.734 HEAT:-130.4972
 CYCLE:  1978 TIME:   0.068 TIME LEFT:  2.00D  GRAD.:     8.662 HEAT:-130.4973
 CYCLE:  1979 TIME:   0.068 TIME LEFT:  2.00D  GRAD.:     8.726 HEAT:-130.4975
 CYCLE:  1980 TIME:   0.068 TIME LEFT:  2.00D  GRAD.:     8.818 HEAT:-130.4971
 CYCLE:  1981 TIME:   0.216 TIME LEFT:  2.00D  GRAD.:     9.299 HEAT:-130.4921
 CYCLE:  1982 TIME:   0.068 TIME LEFT:  2.00D  GRAD.:     8.799 HEAT:-130.4952
 CYCLE:  1983 TIME:   0.068 TIME LEFT:  2.00D  GRAD.:     8.681 HEAT:-130.4973
 CYCLE:  1984 TIME:   0.072 TIME LEFT:  2.00D  GRAD.:     8.858 HEAT:-130.4919
 CYCLE:  1985 TIME:   0.068 TIME LEFT:  2.00D  GRAD.:    10.134 HEAT:-130.4885
 CYCLE:  1986 TIME:   0.068 TIME LEFT:  2.00D  GRAD.:     8.750 HEAT:-130.4956
 CYCLE:  1987 TIME:   0.072 TIME LEFT:  2.00D  GRAD.:    10.123 HEAT:-130.4944
 CYCLE:  1988 TIME:   0.064 TIME LEFT:  2.00D  GRAD.:     8.762 HEAT:-130.4976
 CYCLE:  1989 TIME:   0.124 TIME LEFT:  2.00D  GRAD.:    10.913 HEAT:-130.4900
 CYCLE:  1990 TIME:   0.064 TIME LEFT:  2.00D  GRAD.:     8.736 HEAT:-130.4974
 CYCLE:  1991 TIME:   0.068 TIME LEFT:  2.00D  GRAD.:     9.592 HEAT:-130.4943
 CYCLE:  1992 TIME:   0.068 TIME LEFT:  2.00D  GRAD.:     8.842 HEAT:-130.4974
 CYCLE:  1993 TIME:   0.176 TIME LEFT:  2.00D  GRAD.:     9.651 HEAT:-130.4946
 CYCLE:  1994 TIME:   0.068 TIME LEFT:  2.00D  GRAD.:     8.636 HEAT:-130.4977
 CYCLE:  1995 TIME:   0.068 TIME LEFT:  2.00D  GRAD.:     9.046 HEAT:-130.4952
 CYCLE:  1996 TIME:   0.068 TIME LEFT:  2.00D  GRAD.:     8.735 HEAT:-130.4971
 CYCLE:  1997 TIME:   0.116 TIME LEFT:  2.00D  GRAD.:     9.717 HEAT:-130.4937
 CYCLE:  1998 TIME:   0.068 TIME LEFT:  2.00D  GRAD.:     8.733 HEAT:-130.4967
 CYCLE:  1999 TIME:   0.068 TIME LEFT:  2.00D  GRAD.:     8.912 HEAT:-130.4964
 CYCLE:  2000 TIME:   0.068 TIME LEFT:  2.00D  GRAD.:     9.062 HEAT:-130.4962

     EXCESS NUMBER OF OPTIMIZATION CYCLES


          CURRENT VALUE OF GRADIENT NORM =    8.631364

          CURRENT VALUE OF GEOMETRY

singlet am1 esp
 G39

  C    -0.37989167 +1   -0.5859668 +1    0.2609268 +1                        -0.2071
  H     1.11749589 +1   96.5377151 +1   79.0100350 +1     1     0     0       0.0581
  H     1.11725422 +1  108.2736431 +1  -77.2917227 +1     1     2     0       0.0749
  H     1.11688208 +1  108.2102506 +1  117.1620791 +1     1     2     3       0.0765
  C     1.50325338 +1  110.9156962 +1 -121.1467610 +1     1     2     3      -0.1700
  H     1.12157059 +1  109.9003742 +1   63.9792221 +1     5     1     2       0.0904
  H     1.12167957 +1  109.9880285 +1 -177.7421400 +1     5     1     2       0.0966
  C     1.52436251 +1  112.4179036 +1  -57.4533338 +1     5     1     2       0.0370
  H     1.12520845 +1  109.7232451 +1  -45.1103072 +1     8     5     1       0.0959
  C     1.52515399 +1  111.9254284 +1 -167.4361468 +1     8     5     1      -0.1812
  H     1.12083505 +1  109.3402219 +1  -36.0393184 +1    10     8     5       0.0822
  H     1.12340965 +1  108.7078740 +1 -152.6793382 +1    10     8     5       0.1147
  C     1.50448525 +1  111.8809487 +1   86.3409602 +1    10     8     5      -0.2136
  H     1.11632012 +1  111.1992986 +1  -57.7599031 +1    13    10     8       0.0630
  H     1.11663148 +1  110.0268884 +1 -177.8163561 +1    13    10     8       0.0840
  H     1.11765098 +1  110.6537109 +1   62.8467490 +1    13    10     8       0.0897
  O     1.43744641 +1  106.5942275 +1   74.3146530 +1     8     5     1      -0.3043
  C     1.42585031 +1  114.9789498 +1 -133.7783266 +1    17     8     5       0.0767
  H     1.13165767 +1  108.2547462 +1   64.0978193 +1    18    17     8       0.0772
  C     1.48523445 +1  114.5926222 +1  -57.2609998 +1    18    17     8      -0.2403
  H     1.10474177 +1  116.5004119 +1   44.0929317 +1    20    18    17       0.1784
  C     1.33374497 +1  124.1931154 +1 -138.0906683 +1    20    18    17      -0.1203
  C     1.53534097 +1  123.3545024 +1 -173.6444191 +1    22    20    18       0.3650
  O     1.26115871 +1  115.8059928 +1  165.2313893 +1    23    22    20      -0.5554
  O     1.25314462 +1  117.6344685 +1  -14.0897639 +1    23    22    20      -0.5084
  C     1.48181283 +1  122.6930632 +1    5.5902175 +1    22    20    18      -0.1619
  H     1.12847772 +1  107.9950486 +1 -143.8189657 +1    26    22    20       0.1548
  H     1.12422692 +1  108.1296367 +1  100.0620751 +1    26    22    20       0.1102
  C     1.52901831 +1  111.1501971 +1  -21.8136936 +1    26    22    20      -0.0839
  H     1.12951095 +1  109.7301469 +1  -67.7050893 +1    29    26    22       0.1423
  N     1.50106751 +1  109.9584768 +1  175.2262181 +1    29    26    22      -0.0663
  H     1.02032036 +1  110.6750330 +1  166.8031391 +1    31    29    26       0.2383
  H     1.02129963 +1  109.4685683 +1   45.2097138 +1    31    29    26       0.2429
  H     1.03271834 +1  109.2037621 +1  -74.8637251 +1    31    29    26       0.2715
  C     1.56229095 +1  104.2443294 +1 -179.6049845 +1    18    17     8      -0.0064
  H     1.13280573 +1  107.7580404 +1   57.2096675 +1    35    18    17       0.1369
  N     1.44944392 +1  111.5248307 +1  -62.8092387 +1    35    18    17      -0.3675
  H     1.00082303 +1  113.4377622 +1    5.2811525 +1    37    35    18       0.2389
  C     1.38858854 +1  121.6192684 +1  150.2324183 +1    37    35    18       0.3030
  O     1.25326613 +1  120.2825066 +1   29.0867809 +1    39    37    35      -0.4245
  C     1.50333977 +1  118.4869121 +1 -154.9664848 +1    39    37    35      -0.2462
  H     1.11684000 +1  111.1300475 +1  -51.8524132 +1    41    39    37       0.1094
  H     1.11739821 +1  109.1482679 +1 -172.2006026 +1    41    39    37       0.1267
  H     1.11806497 +1  109.6988815 +1   68.6187033 +1    41    39    37       0.1220
 



 TOTAL CPU TIME:           165.73 SECONDS

 == MOPAC DONE ==
